LAMMPS (22 Jul 2025)
OMP_NUM_THREADS environment is not set. Defaulting to 1 thread.
  using 1 OpenMP thread(s) per MPI task
package omp 0
using multi-threaded neighbor list subroutines
# Input script to debug the threebody/table command
# Initialization
units lj
dimension 3
boundary p p p

# Styles of atoms and that stuff
atom_style atomic
pair_style hybrid/overlay zero 0.0 table/omp linear 5000000 threebody/table

newton on

# Create simulaiton box
region simulation_box block -$L $L -$L $L -$L $L
region simulation_box block -1 $L -$L $L -$L $L
region simulation_box block -1 1 -$L $L -$L $L
region simulation_box block -1 1 -1 $L -$L $L
region simulation_box block -1 1 -1 1 -$L $L
region simulation_box block -1 1 -1 1 -1 $L
region simulation_box block -1 1 -1 1 -1 1
# N-atom-types region-ID keyword value Is necesesary the extra/special/per/atom (# of special neighbors per atom)
create_box 2 simulation_box
Created orthogonal box = (-1 -1 -1) to (1 1 1)
  1 by 1 by 2 MPI processor grid

# Atom types
mass 1 1.0      # PA
mass 2 1.0      # PB

# Coefficients
include potential.in
# Script with the pair-wise interaction and bonds between particles

pair_coeff 1 1 zero 0.5
pair_coeff 1 2 table/omp sysFiles/pachTab.table POT 0.6 # sw/omp sysFiles/patchyPot.sw NULL NULL PA PB
Reading pair table potential file sysFiles/pachTab.table with DATE: 2024-07-08
WARNING: 7 of 1000000 force values in table POT are inconsistent with -dE/dr.
WARNING:  Should only be flagged at inflection points (src/pair_table.cpp:469)
pair_coeff 2 2 table/omp sysFiles/pachTab.table POT 0.6 # sw/omp sysFiles/patchyPot.sw NULL NULL PA PB
Reading pair table potential file sysFiles/pachTab.table with DATE: 2024-07-08
WARNING: 7 of 1000000 force values in table POT are inconsistent with -dE/dr.
WARNING:  Should only be flagged at inflection points (src/pair_table.cpp:469)
pair_coeff * * threebody/table swapMech.3b PA PB


# Particles
include particles.in
# Script with all molecule information and create groups for computes

# Introduce the molecules
# ID style args keyword arg
region spawn_box block -$L $L -$L $L -$L $L
region spawn_box block -1 $L -$L $L -$L $L
region spawn_box block -1 1 -$L $L -$L $L
region spawn_box block -1 1 -1 $L -$L $L
region spawn_box block -1 1 -1 1 -$L $L
region spawn_box block -1 1 -1 1 -1 $L
region spawn_box block -1 1 -1 1 -1 1

# create_atoms type style args keyword values
# style_random: N seed region-ID
# keyword_mol: template-ID seed
# keyword_overlap: overlap value = only insert if at least this distance from all existing atoms
# keyword_maxtry: maxtry value = number of attempts to insert a particle before failure
#create_atoms 1 random ${NPA} ${seed1} spawn_box overlap 0.5 maxtry 5000
#create_atoms 2 random ${NPB} ${seed2} spawn_box overlap 0.5 maxtry 5000

# One PA
create_atoms 1 single 0.5 0.5 0.5
Created 1 atoms
  using lattice units in orthogonal box = (-1 -1 -1) to (1 1 1)
  create_atoms CPU = 0.000 seconds

# Anothre PA
#create_atoms 1 single 0.5 0.5 0.5

# Patch B
create_atoms 2 single 0.0 0.0 0.0
Created 1 atoms
  using lattice units in orthogonal box = (-1 -1 -1) to (1 1 1)
  create_atoms CPU = 0.000 seconds

# Patch B
create_atoms 2 single 0.45 0.0 0.0
Created 1 atoms
  using lattice units in orthogonal box = (-1 -1 -1) to (1 1 1)
  create_atoms CPU = 0.000 seconds

# Patch B
create_atoms 2 single 0.0 0.45 0.0
Created 1 atoms
  using lattice units in orthogonal box = (-1 -1 -1) to (1 1 1)
  create_atoms CPU = 0.000 seconds


# Create groups for the threebody potential
group PA type 1
1 atoms in group PA
group PB type 2
3 atoms in group PB

# Neighbor list
neighbor 1.8 bin # extra-distance style
#neigh_modify delay 0 every 1 check no
#neigh_modify exclude molecule/intra CrossLinker
#neigh_modify exclude molecule/intra Monomer

# COMPUTES

# Compute global kinetic and potential energy and temperature
compute t all temp
compute p all pressure t
compute ep all pe
compute ek all ke
variable eT equal etotal
variable eB equal ebond
variable eA equal eangle
variable eM equal emol
variable ec equal ecouple
variable eC equal econserve

# Potencial energy per pair-wise interaction
compute patchPair all pair table/omp epair
compute swapPair all pair threebody/table epair

# Compute the pressure
compute press all pressure t ke virial
compute pressVirial all pressure t virial
compute pressVirialMod all pressure t pair bond angle

# Computes for the stress
compute cstress all stress/atom t ke pair bond angle
compute cstressVirial all stress/atom t virial
compute cstressVirialMod all stress/atom t pair bond angle
compute stress all reduce sum c_cstress[*]
compute stressVirial all reduce sum c_cstressVirial[*]
compute stressVirialMod all reduce sum c_cstressVirialMod[*]

# Compute potential energy per atom
compute potAtom all pe/atom pair

# DUMPS and FIXES

thermo ${NsaveStress}
thermo 1

# Save global energies and temperature
fix Energy all ave/time 1 ${Nsave} ${Nsave} c_t c_patchPair c_swapPair c_ep c_ek v_eT v_ec v_eC c_p v_eB v_eA v_eM file ${Dir}/${file1_name}
fix Energy all ave/time 1 1 ${Nsave} c_t c_patchPair c_swapPair c_ep c_ek v_eT v_ec v_eC c_p v_eB v_eA v_eM file ${Dir}/${file1_name}
fix Energy all ave/time 1 1 1 c_t c_patchPair c_swapPair c_ep c_ek v_eT v_ec v_eC c_p v_eB v_eA v_eM file ${Dir}/${file1_name}
fix Energy all ave/time 1 1 1 c_t c_patchPair c_swapPair c_ep c_ek v_eT v_ec v_eC c_p v_eB v_eA v_eM file /home/franvt/GitRepos/molDynLammps/polymericGels/tests-3body/data/2026-01-28-105503/${file1_name}
fix Energy all ave/time 1 1 1 c_t c_patchPair c_swapPair c_ep c_ek v_eT v_ec v_eC c_p v_eB v_eA v_eM file /home/franvt/GitRepos/molDynLammps/polymericGels/tests-3body/data/2026-01-28-105503/system_assembly.fixf

# Save Pressure and Stress tensor
fix fixStress5 all ave/time 1 ${NsaveStress} ${NsaveStress} c_p c_press[*] c_pressVirial[*] c_pressVirialMod[*] c_stress[*] c_stressVirial[*] c_stressVirialMod[*] file ${Dir}/${file2_name}
fix fixStress5 all ave/time 1 1 ${NsaveStress} c_p c_press[*] c_pressVirial[*] c_pressVirialMod[*] c_stress[*] c_stressVirial[*] c_stressVirialMod[*] file ${Dir}/${file2_name}
fix fixStress5 all ave/time 1 1 1 c_p c_press[*] c_pressVirial[*] c_pressVirialMod[*] c_stress[*] c_stressVirial[*] c_stressVirialMod[*] file ${Dir}/${file2_name}
fix fixStress5 all ave/time 1 1 1 c_p c_press[*] c_pressVirial[*] c_pressVirialMod[*] c_stress[*] c_stressVirial[*] c_stressVirialMod[*] file /home/franvt/GitRepos/molDynLammps/polymericGels/tests-3body/data/2026-01-28-105503/${file2_name}
fix fixStress5 all ave/time 1 1 1 c_p c_press[*] c_pressVirial[*] c_pressVirialMod[*] c_stress[*] c_stressVirial[*] c_stressVirialMod[*] file /home/franvt/GitRepos/molDynLammps/polymericGels/tests-3body/data/2026-01-28-105503/stress_assembly.fixf

# Save atom positions with cluster id
dump dumpID all custom ${Ndump} ${Dir}/traj/${file5_name} id type x y z vx vy vz fx fy fz c_potAtom
dump dumpID all custom 1 ${Dir}/traj/${file5_name} id type x y z vx vy vz fx fy fz c_potAtom
dump dumpID all custom 1 /home/franvt/GitRepos/molDynLammps/polymericGels/tests-3body/data/2026-01-28-105503/traj/${file5_name} id type x y z vx vy vz fx fy fz c_potAtom
dump dumpID all custom 1 /home/franvt/GitRepos/molDynLammps/polymericGels/tests-3body/data/2026-01-28-105503/traj/traj_assembly.*.dumpf id type x y z vx vy vz fx fy fz c_potAtom
dump_modify dumpID pbc yes # remap atoms via periodic boundary conditions

# RUN SIMULATION

# Brownian Dynamics using Langevin Thermostat

timestep ${tstep}
timestep 0.001

fix VelVerlet all nve # Use Velocity Verlet integrator

run ${steps}
run 2000
Hybrid pair style last /omp style table/omp
Last active /omp style is pair_style table/omp
Neighbor list info ...
  update: every = 1 steps, delay = 0 steps, check = yes
  max neighbors/atom: 2000, page size: 100000
  master list distance cutoff = 2.4
  ghost atom cutoff = 2.4
  binsize = 1.2, bins = 2 2 2
  4 neighbor lists, perpetual/occasional/extra = 4 0 0
  (1) pair zero, perpetual, skip from (4)
      attributes: half, newton on, omp
      pair build: skip/omp
      stencil: none
      bin: none
  (2) pair table/omp, perpetual, skip from (4)
      attributes: half, newton on, omp
      pair build: skip/omp
      stencil: none
      bin: none
  (3) pair threebody/table, perpetual
      attributes: full, newton on, omp, cut 2.4
      pair build: full/bin/atomonly/omp
      stencil: full/bin/3d
      bin: standard
  (4) neighbor class addition, perpetual, half/full from (3)
      attributes: half, newton on, omp
      pair build: halffull/newton/omp
      stencil: none
      bin: none
WARNING: Proc sub-domain size < neighbor skin, could lead to lost atoms (src/domain.cpp:1204)
Per MPI rank memory allocation (min/avg/max) = 9.61 | 10.52 | 11.42 Mbytes
   Step          Temp          E_pair         E_mol          TotEng         Press     
         0   0             -0.88288807     0             -0.88288807    -0.91008095   
         1   0.00026171301 -0.88318253     0             -0.8828881     -0.90975808   
         2   0.0010464189  -0.88406542     0             -0.88288819    -0.90878841   
         3   0.0023528143  -0.88553526     0             -0.88288835    -0.90716873   
         4   0.0041787126  -0.88758962     0             -0.88288857    -0.90489374   
         5   0.0065210238  -0.890225       0             -0.88288885    -0.90195605   
         6   0.0093757253  -0.89343689     0             -0.8828892     -0.89834627   
         7   0.012737825   -0.89721968     0             -0.88288963    -0.89405305   
         8   0.01660132    -0.90156661     0             -0.88289013    -0.88906317   
         9   0.020959139   -0.90646974     0             -0.88289071    -0.88336163   
        10   0.025803094   -0.91191986     0             -0.88289138    -0.87693178   
        11   0.03112381    -0.91790643     0             -0.88289214    -0.86975543   
        12   0.036910658   -0.92441749     0             -0.882893      -0.86181298   
        13   0.043151685   -0.93143961     0             -0.88289396    -0.85308359   
        14   0.049833534   -0.93895776     0             -0.88289503    -0.84354533   
        15   0.056941367   -0.94695526     0             -0.88289622    -0.83317536   
        16   0.064458784   -0.95541367     0             -0.88289754    -0.82195011   
        17   0.072367744   -0.96431269     0             -0.88289898    -0.80984549   
        18   0.08064848    -0.9736301      0             -0.88290056    -0.79683708   
        19   0.089279427   -0.98334163     0             -0.88290228    -0.78290036   
        20   0.098237146   -0.99342094     0             -0.88290415    -0.76801091   
        21   0.10749625    -1.0038395      0             -0.88290617    -0.75214464   
        22   0.11702937    -1.0145664      0             -0.88290835    -0.73527806   
        23   0.12680704    -1.0255686      0             -0.8829107     -0.71738846   
        24   0.13679772    -1.0368106      0             -0.8829132     -0.69845417   
        25   0.14696773    -1.0482546      0             -0.88291588    -0.67845481   
        26   0.15728125    -1.0598601      0             -0.88291873    -0.6573715    
        27   0.16770029    -1.0715846      0             -0.88292174    -0.63518711   
        28   0.17818474    -1.0833828      0             -0.88292492    -0.61188648   
        29   0.18869239    -1.0952072      0             -0.88292827    -0.58745668   
        30   0.19917898    -1.1070081      0             -0.88293177    -0.56188716   
        31   0.2095983     -1.1187335      0             -0.88293543    -0.53517001   
        32   0.21990226    -1.1303293      0             -0.88293923    -0.50730019   
        33   0.23004107    -1.1417394      0             -0.88294316    -0.47827564   
        34   0.23996337    -1.152906       0             -0.88294721    -0.44809755   
        35   0.24961643    -1.1637699      0             -0.88295137    -0.41677048   
        36   0.25894636    -1.1742703      0             -0.88295561    -0.38430256   
        37   0.26789836    -1.1843456      0             -0.88295992    -0.35070563   
        38   0.27641706    -1.1939335      0             -0.88296427    -0.31599538   
        39   0.28444676    -1.2029713      0             -0.88296864    -0.28019149   
        40   0.29193185    -1.2113963      0             -0.88297301    -0.24331775   
        41   0.29881715    -1.2191466      0             -0.88297733    -0.20540221   
        42   0.30504839    -1.226161       0             -0.88298158    -0.16647721   
        43   0.31057259    -1.2323799      0             -0.88298572    -0.12657955   
        44   0.31533861    -1.2377457      0             -0.88298972    -0.085750545  
        45   0.31929764    -1.2422034      0             -0.88299353    -0.044036108  
        46   0.32240374    -1.2457013      0             -0.88299712    -0.0014868191 
        47   0.3246144     -1.2481916      0             -0.88300044     0.04184201   
        48   0.32589112    -1.249631       0             -0.88300345     0.085890284  
        49   0.32620001    -1.2499811      0             -0.8830061      0.13059308   
        50   0.32551242    -1.2492098      0             -0.88300835     0.17588062   
        51   0.32380548    -1.2472913      0             -0.88301015     0.22167826   
        52   0.32106274    -1.244207       0             -0.88301147     0.26790646   
        53   0.31727475    -1.2399463      0             -0.88301225     0.31448082   
        54   0.3124396     -1.234507       0             -0.88301246     0.36131213   
        55   0.30656344    -1.2278959      0             -0.88301207     0.40830637   
        56   0.29966094    -1.2201296      0             -0.88301103     0.45536487   
        57   0.29175572    -1.2112345      0             -0.88300933     0.50238435   
        58   0.28288069    -1.2012477      0             -0.88300694     0.54925714   
        59   0.27307827    -1.1902169      0             -0.88300384     0.59587132   
        60   0.2624006     -1.1782007      0             -0.88300004     0.642111     
        61   0.25090951    -1.1652687      0             -0.88299553     0.68785655   
        62   0.23867655    -1.1515014      0             -0.88299032     0.732985     
        63   0.22578269    -1.13699        0             -0.88298445     0.77737037   
        64   0.212318      -1.1218357      0             -0.88297793     0.82088418   
        65   0.1983812     -1.1061497      0             -0.88297081     0.86339589   
        66   0.18407892    -1.0900519      0             -0.88296315     0.90477347   
        67   0.16952498    -1.0736706      0             -0.88295502     0.94488408   
        68   0.15483938    -1.0571408      0             -0.8829465      0.9835947    
        69   0.14014721    -1.0406033      0             -0.88293767     1.020773     
        70   0.12557738    -1.0242032      0             -0.88292863     1.0562881    
        71   0.11126127    -1.0080884      0             -0.88291949     1.0900118    
        72   0.097331173   -0.99240793     0             -0.88291036     1.1218191    
        73   0.0839188     -0.97731001     0             -0.88290136     1.1515897    
        74   0.071153559   -0.96294037     0             -0.88289261     1.1792087    
        75   0.059160896   -0.94944025     0             -0.88288424     1.2045676    
        76   0.048060598   -0.93694454     0             -0.88287637     1.2275655    
        77   0.037965124   -0.92557988     0             -0.88286911     1.2481095    
        78   0.028978001   -0.91546283     0             -0.88286258     1.266116     
        79   0.021192308   -0.90669821     0             -0.88285686     1.281511     
        80   0.014689298   -0.89937753     0             -0.88285206     1.2942309    
        81   0.0095371671  -0.89357757     0             -0.88284826     1.3042229    
        82   0.0057900173  -0.88935926     0             -0.8828455      1.3114456    
        83   0.0034870293  -0.88676674     0             -0.88284383     1.3158694    
        84   0.0026518629  -0.88582663     0             -0.88284328     1.3174768    
        85   0.0032923037  -0.8865477      0             -0.88284386     1.3162622    
        86   0.0054001624  -0.88892073     0             -0.88284555     1.3122327    
        87   0.0089514292  -0.89291868     0             -0.88284833     1.3054077    
        88   0.01390668    -0.89849715     0             -0.88285214     1.2958186    
        89   0.020211725   -0.90559512     0             -0.88285693     1.2835092    
        90   0.02779848    -0.9141359      0             -0.88286261     1.2685346    
        91   0.036586046   -0.92402839     0             -0.88286909     1.2509613    
        92   0.046481969   -0.93516849     0             -0.88287628     1.2308663    
        93   0.057383639   -0.94744064     0             -0.88288405     1.2083362    
        94   0.069179819   -0.96071959     0             -0.8828923      1.1834665    
        95   0.081752247   -0.97487217     0             -0.8829009      1.1563604    
        96   0.094977288   -0.98975918     0             -0.88290973     1.1271281    
        97   0.10872761    -1.0052372      0             -0.88291867     1.0958855    
        98   0.12287381    -1.0211607      0             -0.88292761     1.0627529    
        99   0.13728607    -1.0373833      0             -0.88293644     1.0278549    
       100   0.15183561    -1.0537601      0             -0.88294506     0.99131868   
       101   0.16639622    -1.0701491      0             -0.88295337     0.95327336   
       102   0.18084549    -1.0864125      0             -0.88296128     0.91384938   
       103   0.19506608    -1.1024181      0             -0.88296873     0.87317754   
       104   0.20894672    -1.1180407      0             -0.88297565     0.83138833   
       105   0.22238314    -1.133163       0             -0.88298198     0.78861124   
       106   0.23527886    -1.1476764      0             -0.8829877      0.74497414   
       107   0.24754572    -1.1614817      0             -0.88299276     0.70060274   
       108   0.25910442    -1.1744896      0             -0.88299715     0.65562011   
       109   0.26988476    -1.1866212      0             -0.88300086     0.61014621   
       110   0.27982591    -1.197808       0             -0.88300388     0.56429757   
       111   0.28887638    -1.2079922      0             -0.88300624     0.51818697   
       112   0.29699402    -1.2171262      0             -0.88300792     0.47192313   
       113   0.30414584    -1.225173       0             -0.88300897     0.42561059   
       114   0.31030776    -1.2321056      0             -0.88300941     0.37934947   
       115   0.31546427    -1.2379066      0             -0.88300927     0.33323536   
       116   0.31960806    -1.2425677      0             -0.88300858     0.28735924   
       117   0.32273956    -1.2460894      0             -0.88300738     0.2418074    
       118   0.32486641    -1.2484804      0             -0.88300571     0.1966614    
       119   0.32600298    -1.249757       0             -0.88300362     0.15199809   
       120   0.32616979    -1.2499422      0             -0.88300114     0.10788955   
       121   0.32539297    -1.2490654      0             -0.88299832     0.064403149  
       122   0.32370367    -1.2471618      0             -0.88299519     0.021601583  
       123   0.32113748    -1.2442715      0             -0.88299181    -0.020457103  
       124   0.3177339     -1.2404389      0             -0.88298822    -0.061719452  
       125   0.31353576    -1.2357122      0             -0.88298444    -0.10213653   
       126   0.30858872    -1.2301428      0             -0.88298052    -0.14166386   
       127   0.30294072    -1.2237848      0             -0.88297649    -0.18026134   
       128   0.29664153    -1.2166941      0             -0.88297239    -0.21789315   
       129   0.28974227    -1.2089283      0             -0.88296825    -0.25452769   
       130   0.28229499    -1.200546       0             -0.88296409    -0.29013745   
       131   0.27435227    -1.1916063      0             -0.88295995    -0.32469889   
       132   0.26596685    -1.1821685      0             -0.88295584    -0.35819239   
       133   0.25719129    -1.172292       0             -0.88295178    -0.39060207   
       134   0.24807767    -1.1620352      0             -0.88294781    -0.42191567   
       135   0.2386773     -1.1514559      0             -0.88294392    -0.45212444   
       136   0.22904052    -1.1406107      0             -0.88294015    -0.48122296   
       137   0.21921642    -1.129555       0             -0.8829365     -0.50920902   
       138   0.20925271    -1.1183423      0             -0.88293297    -0.53608343   
       139   0.19919556    -1.1070246      0             -0.88292959    -0.56184987   
       140   0.18908941    -1.0956519      0             -0.88292635    -0.5865147    
       141   0.17897694    -1.0842723      0             -0.88292327    -0.61008677   
       142   0.16889896    -1.0729317      0             -0.88292034    -0.63257725   
       143   0.15889431    -1.0616737      0             -0.88291756    -0.65399943   
       144   0.14899989    -1.0505398      0             -0.88291495    -0.6743685    
       145   0.13925056    -1.0395694      0             -0.88291249    -0.69370135   
       146   0.1296792     -1.0287993      0             -0.88291019    -0.71201637   
       147   0.12031669    -1.0182643      0             -0.88290804    -0.72933323   
       148   0.11119191    -1.0079969      0             -0.88290605    -0.74567268   
       149   0.10233182    -0.99802749     0             -0.8829042     -0.76105633   
       150   0.093761466   -0.98838414     0             -0.88290249    -0.77550645   
       151   0.085504051   -0.97909297     0             -0.88290092    -0.78904572   
       152   0.077580985   -0.97017808     0             -0.88289947    -0.80169711   
       153   0.07001195    -0.9616616      0             -0.88289816    -0.81348359   
       154   0.062814972   -0.95356381     0             -0.88289696    -0.824428     
       155   0.056006486   -0.94590318     0             -0.88289588    -0.83455286   
       156   0.049601416   -0.9386965      0             -0.88289491    -0.84388014   
       157   0.043613242   -0.93195893     0             -0.88289403    -0.85243117   
       158   0.038054074   -0.92570409     0             -0.88289326    -0.8602264    
       159   0.032934725   -0.91994414     0             -0.88289257    -0.86728531   
       160   0.028264778   -0.91468984     0             -0.88289197    -0.87362626   
       161   0.02405265    -0.90995068     0             -0.88289145    -0.87926634   
       162   0.020305658   -0.90573487     0             -0.882891      -0.88422128   
       163   0.01703007    -0.90204946     0             -0.88289063    -0.8885053    
       164   0.014231164   -0.89890038     0             -0.88289032    -0.89213111   
       165   0.011913268   -0.89629251     0             -0.88289008    -0.89510973   
       166   0.010079804   -0.89422968     0             -0.8828899     -0.89745047   
       167   0.0087333233  -0.89271477     0             -0.88288978    -0.8991609    
       168   0.0078755311  -0.89174969     0             -0.88288972    -0.90024677   
       169   0.0075073102  -0.89133544     0             -0.88288971    -0.90071197   
       170   0.0076287344  -0.89147209     0             -0.88288976    -0.90055859   
       171   0.0082390766  -0.89215883     0             -0.88288987    -0.89978682   
       172   0.0093368086  -0.89339395     0             -0.88289004    -0.89839503   
       173   0.010919596   -0.8951748      0             -0.88289026    -0.89637978   
       174   0.012984285   -0.89749786     0             -0.88289054    -0.89373583   
       175   0.015526883   -0.90035862     0             -0.88289088    -0.89045621   
       176   0.018542533   -0.90375164     0             -0.88289129    -0.88653228   
       177   0.022025485   -0.90767043     0             -0.88289176    -0.88195379   
       178   0.025969054   -0.91210749     0             -0.8828923     -0.87670898   
       179   0.030365584   -0.9170542      0             -0.88289292    -0.87078465   
       180   0.035206398   -0.92250081     0             -0.88289362    -0.86416632   
       181   0.040481749   -0.92843636     0             -0.88289439    -0.85683828   
       182   0.046180766   -0.93484862     0             -0.88289526    -0.84878376   
       183   0.052291398   -0.94172403     0             -0.88289621    -0.83998506   
       184   0.058800357   -0.94904766     0             -0.88289726    -0.83042369   
       185   0.065693058   -0.95680311     0             -0.88289841    -0.82008053   
       186   0.07295356    -0.96497243     0             -0.88289967    -0.808936     
       187   0.080564507   -0.97353611     0             -0.88290104    -0.79697022   
       188   0.088507072   -0.98247298     0             -0.88290253    -0.78416318   
       189   0.096760906   -0.99176015     0             -0.88290413    -0.77049495   
       190   0.10530409    -1.001373       0             -0.88290586    -0.75594583   
       191   0.11411307    -1.0112849      0             -0.88290771    -0.74049657   
       192   0.12316267    -1.0214677      0             -0.88290969    -0.72412854   
       193   0.13242599    -1.031891       0             -0.8829118     -0.70682395   
       194   0.14187446    -1.0425228      0             -0.88291405    -0.68856598   
       195   0.15147778    -1.0533289      0             -0.88291643    -0.66933907   
       196   0.16120393    -1.0642734      0             -0.88291894    -0.64912901   
       197   0.17101919    -1.0753182      0             -0.88292158    -0.62792319   
       198   0.18088819    -1.0864236      0             -0.88292436    -0.60571076   
       199   0.1907739     -1.0975479      0             -0.88292725    -0.58248281   
       200   0.20063776    -1.1086477      0             -0.88293027    -0.55823253   
       201   0.21043969    -1.1196781      0             -0.8829334     -0.53295539   
       202   0.22013824    -1.1305922      0             -0.88293664    -0.50664927   
       203   0.22969069    -1.141342       0             -0.88293997    -0.47931465   
       204   0.23905318    -1.1518782      0             -0.88294338    -0.45095471   
       205   0.24818087    -1.1621504      0             -0.88294687    -0.42157546   
       206   0.25702817    -1.1721071      0             -0.88295041    -0.39118589   
       207   0.26554886    -1.1816965      0             -0.882954      -0.35979807   
       208   0.2736964     -1.1908661      0             -0.88295761    -0.32742723   
       209   0.28142415    -1.1995634      0             -0.88296122    -0.29409188   
       210   0.28868564    -1.2077361      0             -0.88296481    -0.25981386   
       211   0.29543487    -1.2153326      0             -0.88296835    -0.22461848   
       212   0.30162667    -1.2223018      0             -0.88297184    -0.1885345    
       213   0.30721697    -1.2285943      0             -0.88297523    -0.15159424   
       214   0.31216322    -1.2341621      0             -0.88297849    -0.11383363   
       215   0.31642477    -1.2389595      0             -0.88298161    -0.075292224  
       216   0.31996322    -1.2429432      0             -0.88298455    -0.036013252  
       217   0.32274287    -1.246073       0             -0.88298728     0.0039563662 
       218   0.32473112    -1.2483123      0             -0.88298976     0.044566002  
       219   0.32589891    -1.2496283      0             -0.88299197     0.085761308  
       220   0.32622114    -1.2499927      0             -0.88299388     0.12748423   
       221   0.32567708    -1.2493822      0             -0.88299545     0.169673     
       222   0.32425082    -1.2477788      0             -0.88299665     0.2122622    
       223   0.32193165    -1.2451706      0             -0.88299746     0.25518274   
       224   0.31871446    -1.2415516      0             -0.88299784     0.29836196   
       225   0.31460013    -1.2369229      0             -0.88299777     0.34172368   
       226   0.30959578    -1.2312925      0             -0.88299723     0.38518827   
       227   0.30371517    -1.2246758      0             -0.88299619     0.42867276   
       228   0.29697885    -1.2170959      0             -0.88299465     0.47209098   
       229   0.28941441    -1.2085838      0             -0.88299259     0.51535369   
       230   0.28105661    -1.1991787      0             -0.88299        0.55836876   
       231   0.27194739    -1.1889277      0             -0.88298689     0.6010414    
       232   0.26213593    -1.1778862      0             -0.88298326     0.64327436   
       233   0.25167851    -1.1661174      0             -0.88297912     0.68496823   
       234   0.24063833    -1.1536926      0             -0.88297448     0.72602171   
       235   0.22908526    -1.1406903      0             -0.88296938     0.766332     
       236   0.21709545    -1.1271962      0             -0.88296384     0.80579515   
       237   0.20475089    -1.1133027      0             -0.88295791     0.84430647   
       238   0.19213882    -1.0991078      0             -0.88295162     0.88176102   
       239   0.17935111    -1.084715       0             -0.88294504     0.91805405   
       240   0.16648348    -1.0702321      0             -0.88293823     0.95308157   
       241   0.15363468    -1.0557702      0             -0.88293124     0.98674088   
       242   0.14090557    -1.0414429      0             -0.88292414     1.0189311    
       243   0.12839815    -1.0273649      0             -0.88291703     1.049554     
       244   0.11621452    -1.0136513      0             -0.88290996     1.0785142    
       245   0.10445579    -1.0004158      0             -0.88290303     1.1057201    
       246   0.093220968   -0.98776989     0             -0.8828963      1.1310847    
       247   0.082605866   -0.97582147     0             -0.88288987     1.1545255    
       248   0.072701959   -0.96467352     0             -0.88288381     1.175966     
       249   0.063595319   -0.95442294     0             -0.8828782      1.1953357    
       250   0.055365568   -0.94515937     0             -0.88287311     1.2125707    
       251   0.048084907   -0.93696412     0             -0.8828686      1.2276143    
       252   0.041817228   -0.92990911     0             -0.88286473     1.2404177    
       253   0.036617314   -0.92405603     0             -0.88286155     1.2509399    
       254   0.032530173   -0.91945555     0             -0.8828591      1.2591483    
       255   0.029590481   -0.9161467      0             -0.88285741     1.2650191    
       256   0.027822178   -0.91415644     0             -0.88285649     1.2685373    
       257   0.027238202   -0.91349934     0             -0.88285636     1.2696966    
       258   0.02784038    -0.91417745     0             -0.88285702     1.2685       
       259   0.029619463   -0.91618034     0             -0.88285844     1.2649593    
       260   0.032555324   -0.91948534     0             -0.8828606      1.2590948    
       261   0.036617286   -0.92405792     0             -0.88286347     1.2509359    
       262   0.041764607   -0.92985219     0             -0.88286701     1.2405197    
       263   0.04794707    -0.93681161     0             -0.88287116     1.2278917    
       264   0.055105709   -0.94486978     0             -0.88287585     1.2131045    
       265   0.063173614   -0.95395135     0             -0.88288104     1.1962181    
       266   0.072076837   -0.96397308     0             -0.88288664     1.1772988    
       267   0.081735346   -0.97484484     0             -0.88289258     1.156419     
       268   0.092064041   -0.98647083     0             -0.88289879     1.1336562    
       269   0.10297379    -0.9987507      0             -0.88290519     1.109093     
       270   0.11437246    -1.0115807      0             -0.8829117      1.082816     
       271   0.12616601    -1.024855       0             -0.88291826     1.0549154    
       272   0.13825943    -1.0384666      0             -0.88292479     1.0254843    
       273   0.15055782    -1.0523088      0             -0.88293122     0.99461806   
       274   0.16296724    -1.0662756      0             -0.8829375      0.96241392   
       275   0.17539565    -1.0802637      0             -0.88294356     0.92897018   
       276   0.18775365    -1.0941722      0             -0.88294935     0.89438584   
       277   0.19995528    -1.1079045      0             -0.88295484     0.85876      
       278   0.21191863    -1.1213684      0             -0.88295997     0.82219147   
       279   0.22356638    -1.1344769      0             -0.88296472     0.78477827   
       280   0.23482633    -1.1471487      0             -0.88296906     0.7466173    
       281   0.24563175    -1.1593087      0             -0.88297297     0.70780394   
       282   0.2559217     -1.1708884      0             -0.88297644     0.66843173   
       283   0.26564126    -1.1818259      0             -0.88297946     0.62859215   
       284   0.27474168    -1.1920664      0             -0.88298202     0.5883743    
       285   0.28318043    -1.2015621      0             -0.88298413     0.54786473   
       286   0.29092122    -1.2102722      0             -0.88298579     0.50714725   
       287   0.29793395    -1.2181627      0             -0.88298702     0.46630282   
       288   0.3041946     -1.2252067      0             -0.88298782     0.42540934   
       289   0.30968505    -1.2313839      0             -0.88298821     0.38454165   
       290   0.31439289    -1.2366802      0             -0.88298822     0.34377141   
       291   0.31831118    -1.2410879      0             -0.88298785     0.30316703   
       292   0.32143818    -1.2446051      0             -0.88298715     0.26279366   
       293   0.32377702    -1.2472353      0             -0.88298612     0.22271319   
       294   0.32533545    -1.2489872      0             -0.8829848      0.18298418   
       295   0.32612545    -1.2498743      0             -0.88298321     0.14366193   
       296   0.32616291    -1.2499147      0             -0.88298138     0.10479844   
       297   0.32546729    -1.24913        0             -0.88297933     0.066442483  
       298   0.32406129    -1.247546       0             -0.88297709     0.028639597  
       299   0.32197045    -1.2451914      0             -0.88297467    -0.0085678526 
       300   0.31922288    -1.2420979      0             -0.88297212    -0.045140642  
       301   0.3158489     -1.2382995      0             -0.88296945    -0.081042634  
       302   0.31188068    -1.2338324      0             -0.88296667    -0.11624073   
       303   0.30735202    -1.2287348      0             -0.88296383    -0.15070481   
       304   0.30229795    -1.2230461      0             -0.88296092    -0.18440766   
       305   0.29675455    -1.2168068      0             -0.88295798    -0.21732494   
       306   0.2907586     -1.2100585      0             -0.88295502    -0.24943508   
       307   0.28434741    -1.2028429      0             -0.88295206    -0.28071922   
       308   0.27755851    -1.1952024      0             -0.88294911    -0.31116114   
       309   0.27042951    -1.1871794      0             -0.88294619    -0.34074717   
       310   0.26299785    -1.1788159      0             -0.8829433     -0.36946613   
       311   0.25530064    -1.1701537      0             -0.88294047    -0.39730919   
       312   0.24737452    -1.161234       0             -0.88293769    -0.42426985   
       313   0.23925547    -1.1520974      0             -0.88293499    -0.45034379   
       314   0.23097871    -1.1427834      0             -0.88293236    -0.47552878   
       315   0.22257861    -1.1333307      0             -0.88292981    -0.4998246    
       316   0.21408852    -1.1237769      0             -0.88292735    -0.52323293   
       317   0.20554076    -1.1141583      0             -0.88292499    -0.5457572    
       318   0.19696651    -1.10451        0             -0.88292272    -0.56740255   
       319   0.18839577    -1.0948658      0             -0.88292055    -0.58817563   
       320   0.17985731    -1.085258       0             -0.88291848    -0.60808455   
       321   0.17137863    -1.0757175      0             -0.88291652    -0.62713874   
       322   0.16298593    -1.0662738      0             -0.88291466    -0.6453488    
       323   0.15470413    -1.056955       0             -0.8829129     -0.66272641   
       324   0.14655684    -1.0477877      0             -0.88291124    -0.6792842    
       325   0.13856635    -1.0387968      0             -0.88290968    -0.69503563   
       326   0.13075368    -1.0300061      0             -0.88290822    -0.70999483   
       327   0.12313855    -1.0214377      0             -0.88290686    -0.72417652   
       328   0.11573945    -1.0131125      0             -0.88290559    -0.7375959    
       329   0.10857361    -1.0050497      0             -0.88290441    -0.75026845   
       330   0.1016571     -0.99726756     0             -0.88290332    -0.76220992   
       331   0.095004792   -0.98978271     0             -0.88290232    -0.77343612   
       332   0.088630453   -0.98261066     0             -0.8829014     -0.78396288   
       333   0.082546751   -0.97576565     0             -0.88290055    -0.79380591   
       334   0.076765307   -0.96926076     0             -0.88289979    -0.80298068   
       335   0.071296735   -0.96310792     0             -0.88289909    -0.81150238   
       336   0.066150679   -0.95731798     0             -0.88289846    -0.81938577   
       337   0.061335857   -0.95190074     0             -0.8828979     -0.82664511   
       338   0.0568601     -0.94686501     0             -0.8828974     -0.83329408   
       339   0.05273039    -0.94221865     0             -0.88289696    -0.83934573   
       340   0.048952901   -0.93796859     0             -0.88289658    -0.84481237   
       341   0.045533028   -0.9341209      0             -0.88289625    -0.84970551   
       342   0.042475429   -0.93068082     0             -0.88289597    -0.85403584   
       343   0.03978405    -0.92765279     0             -0.88289573    -0.85781314   
       344   0.037462157   -0.92504048     0             -0.88289555    -0.86104626   
       345   0.035512362   -0.92284682     0             -0.88289541    -0.86374306   
       346   0.033936647   -0.92107404     0             -0.88289532    -0.8659104    
       347   0.03273638    -0.91972369     0             -0.88289526    -0.86755413   
       348   0.031912341   -0.91879663     0             -0.88289525    -0.86867902   
       349   0.031464726   -0.91829309     0             -0.88289527    -0.86928881   
       350   0.031393168   -0.91821265     0             -0.88289534    -0.86938616   
       351   0.031696737   -0.91855427     0             -0.88289544    -0.86897269   
       352   0.032373951   -0.91931628     0             -0.88289559    -0.86804895   
       353   0.033422774   -0.92049639     0             -0.88289577    -0.86661447   
       354   0.034840617   -0.92209168     0             -0.88289599    -0.86466778   
       355   0.036624334   -0.92409862     0             -0.88289625    -0.86220641   
       356   0.038770214   -0.92651304     0             -0.88289655    -0.85922695   
       357   0.041273973   -0.92933011     0             -0.88289689    -0.85572507   
       358   0.044130745   -0.93254437     0             -0.88289728    -0.8516956    
       359   0.047335064   -0.93614965     0             -0.88289771    -0.84713254   
       360   0.05088085    -0.94013914     0             -0.88289818    -0.84202913   
       361   0.054761395   -0.94450527     0             -0.8828987     -0.83637793   
       362   0.058969339   -0.94923977     0             -0.88289927    -0.83017087   
       363   0.063496654   -0.95433362     0             -0.88289989    -0.82339931   
       364   0.068334626   -0.95977701     0             -0.88290056    -0.81605412   
       365   0.073473827   -0.96555934     0             -0.88290128    -0.80812579   
       366   0.0789041     -0.97166917     0             -0.88290206    -0.79960447   
       367   0.084614535   -0.97809425     0             -0.8829029     -0.79048006   
       368   0.090593453   -0.98482142     0             -0.88290379    -0.78074233   
       369   0.096828381   -0.99183667     0             -0.88290474    -0.77038096   
       370   0.10330604    -0.99912506     0             -0.88290576    -0.75938569   
       371   0.11001233    -1.0066707      0             -0.88290684    -0.74774636   
       372   0.11693231    -1.0144568      0             -0.88290798    -0.73545304   
       373   0.12405019    -1.0224656      0             -0.88290919    -0.72249609   
       374   0.13134933    -1.0306784      0             -0.88291046    -0.70886632   
       375   0.13881223    -1.0390755      0             -0.88291179    -0.694555     
       376   0.14642053    -1.0476363      0             -0.88291319    -0.67955402   
       377   0.15415502    -1.0563391      0             -0.88291466    -0.66385595   
       378   0.16199565    -1.0651613      0             -0.88291618    -0.64745415   
       379   0.16992153    -1.0740795      0             -0.88291778    -0.63034284   
       380   0.17791099    -1.0830693      0             -0.88291943    -0.6125172    
       381   0.18594154    -1.0921054      0             -0.88292113    -0.59397346   
       382   0.19398999    -1.1011616      0             -0.8829229     -0.57470896   
       383   0.2020324     -1.1102112      0             -0.88292471    -0.55472225   
       384   0.21004422    -1.1192263      0             -0.88292658    -0.53401314   
       385   0.21800025    -1.1281788      0             -0.88292848    -0.51258282   
       386   0.22587478    -1.1370396      0             -0.88293043    -0.49043384   
       387   0.23364164    -1.1457792      0             -0.88293241    -0.46757025   
       388   0.24127423    -1.1543679      0             -0.88293441    -0.44399762   
       389   0.24874568    -1.1627753      0             -0.88293644    -0.41972309   
       390   0.2560289     -1.170971       0             -0.88293848    -0.39475544   
       391   0.2630967     -1.1789243      0             -0.88294052    -0.36910512   
       392   0.26992187    -1.1866047      0             -0.88294256    -0.34278426   
       393   0.27647734    -1.1939816      0             -0.88294458    -0.31580676   
       394   0.28273629    -1.2010249      0             -0.88294658    -0.28818825   
       395   0.28867226    -1.2077048      0             -0.88294855    -0.25994619   
       396   0.29425933    -1.2139922      0             -0.88295048    -0.23109983   
       397   0.29947222    -1.2198586      0             -0.88295235    -0.20167023   
       398   0.30428647    -1.2252764      0             -0.88295415    -0.17168031   
       399   0.30867861    -1.2302193      0             -0.88295588    -0.14115481   
       400   0.31262628    -1.2346621      0             -0.88295752    -0.11012032   
       401   0.31610841    -1.238581       0             -0.88295905    -0.078605275  
       402   0.3191054     -1.241954       0             -0.88296047    -0.046639928  
       403   0.32159926    -1.2447609      0             -0.88296176    -0.014256361  
       404   0.32357379    -1.2469834      0             -0.88296292     0.018511537  
       405   0.32501476    -1.2486055      0             -0.88296392     0.051628092  
       406   0.32591005    -1.2496136      0             -0.88296476     0.085055867  
       407   0.32624979    -1.2499964      0             -0.88296542     0.11875569   
       408   0.32602656    -1.2497458      0             -0.8829659      0.15268669   
       409   0.32523549    -1.2488561      0             -0.88296619     0.18680634   
       410   0.32387443    -1.247325       0             -0.88296627     0.22107049   
       411   0.32194404    -1.2451532      0             -0.88296613     0.25543341   
       412   0.31944791    -1.2423447      0             -0.88296578     0.28984789   
       413   0.31639267    -1.238907       0             -0.8829652      0.32426525   
       414   0.31278805    -1.2348509      0             -0.88296439     0.35863544   
       415   0.30864695    -1.2301912      0             -0.88296334     0.39290712   
       416   0.30398548    -1.2249457      0             -0.88296206     0.42702775   
       417   0.29882294    -1.2191364      0             -0.88296054     0.46094365   
       418   0.29318189    -1.2127884      0             -0.88295879     0.49460015   
       419   0.28708803    -1.2059308      0             -0.88295681     0.52794168   
       420   0.28057022    -1.1985961      0             -0.88295461     0.5609119    
       421   0.27366032    -1.19082        0             -0.88295218     0.59345385   
       422   0.26639315    -1.1826418      0             -0.88294955     0.62551007   
       423   0.25880626    -1.1741038      0             -0.88294673     0.65702276   
       424   0.25093984    -1.1652511      0             -0.88294373     0.68793397   
       425   0.24283647    -1.1561316      0             -0.88294057     0.71818574   
       426   0.2345409     -1.1467958      0             -0.88293726     0.74772032   
       427   0.22609979    -1.1372961      0             -0.88293383     0.77648034   
       428   0.21756143    -1.1276869      0             -0.88293029     0.80440903   
       429   0.20897543    -1.118024       0             -0.88292668     0.83145043   
       430   0.20039239    -1.1083645      0             -0.88292302     0.85754958   
       431   0.19186354    -1.0987658      0             -0.88291934     0.88265279   
       432   0.18344037    -1.0892861      0             -0.88291565     0.90670782   
       433   0.17517429    -1.0799831      0             -0.882912       0.92966412   
       434   0.16711619    -1.0709141      0             -0.88290841     0.95147309   
       435   0.15931605    -1.0621355      0             -0.88290491     0.97208825   
       436   0.15182258    -1.0537019      0             -0.88290153     0.99146553   
       437   0.14468279    -1.0456664      0             -0.8828983      1.0095634    
       438   0.13794165    -1.0380796      0             -0.88289523     1.0263431    
       439   0.13164165    -1.0309892      0             -0.88289237     1.0417691    
       440   0.12582252    -1.0244401      0             -0.88288973     1.0558086    
       441   0.12052084    -1.0184733      0             -0.88288734     1.0684325    
       442   0.11576977    -1.0131262      0             -0.88288522     1.0796151    
       443   0.11159877    -1.008432       0             -0.88288338     1.0893344    
       444   0.10803333    -1.0044193      0             -0.88288183     1.097572     
       445   0.10509481    -1.0011123      0             -0.8828806      1.1043133    
       446   0.10280023    -0.99852995     0             -0.88287969     1.1095479    
       447   0.10116218    -0.99668656     0             -0.88287911     1.1132691    
       448   0.10018871    -0.99559116     0             -0.88287885     1.1154743    
       449   0.099883345   -0.99524769     0             -0.88287892     1.1161648    
       450   0.10024502    -0.99565496     0             -0.88287932     1.1153458    
       451   0.10126817    -0.99680672     0             -0.88288003     1.1130267    
       452   0.10294284    -0.99869174     0             -0.88288105     1.1092203    
       453   0.10525478    -1.001294       0             -0.88288236     1.1039434    
       454   0.10818566    -1.0045928      0             -0.88288395     1.0972164    
       455   0.11171323    -1.0085632      0             -0.8828858      1.0890632    
       456   0.11581159    -1.0131759      0             -0.88288789     1.0795108    
       457   0.12045147    -1.0183981      0             -0.8828902      1.0685896    
       458   0.12560048    -1.0241932      0             -0.88289271     1.0563329    
       459   0.13122347    -1.0305218      0             -0.88289538     1.0427766    
       460   0.13728285    -1.0373414      0             -0.8828982      1.0279594    
       461   0.14373891    -1.0446074      0             -0.88290114     1.0119221    
       462   0.1505502     -1.0522732      0             -0.88290418     0.99470778   
       463   0.15767386    -1.0602904      0             -0.88290728     0.97636139   
       464   0.16506598    -1.0686097      0             -0.88291043     0.95692947   
       465   0.17268198    -1.0771808      0             -0.88291359     0.93646005   
       466   0.18047689    -1.0859532      0             -0.88291675     0.91500233   
       467   0.18840573    -1.0948763      0             -0.88291987     0.89260652   
       468   0.19642382    -1.1038997      0             -0.88292295     0.86932359   
       469   0.20448704    -1.1129739      0             -0.88292596     0.84520508   
       470   0.21255216    -1.1220501      0             -0.88292888     0.82030291   
       471   0.22057706    -1.1310809      0             -0.88293169     0.79466914   
       472   0.22852098    -1.1400205      0             -0.88293438     0.76835585   
       473   0.23634474    -1.1488248      0             -0.88293694     0.74141495   
       474   0.24401093    -1.1574516      0             -0.88293935     0.71389799   
       475   0.25148404    -1.1658612      0             -0.88294161     0.68585606   
       476   0.25873067    -1.1740157      0             -0.8829437      0.65733962   
       477   0.26571956    -1.1818801      0             -0.88294562     0.62839842   
       478   0.27242177    -1.1894219      0             -0.88294737     0.59908132   
       479   0.27881069    -1.196611       0             -0.88294894     0.56943625   
       480   0.28486211    -1.2034202      0             -0.88295034     0.5395101    
       481   0.29055425    -1.2098251      0             -0.88295155     0.50934864   
       482   0.29586778    -1.2158038      0             -0.88295259     0.47899643   
       483   0.30078581    -1.2213375      0             -0.88295345     0.44849682   
       484   0.30529384    -1.2264097      0             -0.88295414     0.41789183   
       485   0.30937975    -1.2310069      0             -0.88295466     0.38722214   
       486   0.31303375    -1.235118       0             -0.88295502     0.35652708   
       487   0.3162483     -1.2387346      0             -0.88295522     0.32584456   
       488   0.31901804    -1.2418506      0             -0.88295527     0.29521107   
       489   0.3213397     -1.2444623      0             -0.88295518     0.26466167   
       490   0.32321206    -1.2465685      0             -0.88295495     0.23422997   
       491   0.32463576    -1.2481698      0             -0.8829546      0.20394815   
       492   0.32561329    -1.2492691      0             -0.88295412     0.17384692   
       493   0.32614884    -1.249871       0             -0.88295353     0.14395555   
       494   0.32624819    -1.2499821      0             -0.88295284     0.11430191   
       495   0.3259186     -1.2496105      0             -0.88295206     0.0849124    
       496   0.32516874    -1.248766       0             -0.88295118     0.05581205   
       497   0.32400851    -1.2474598      0             -0.88295023     0.027024482  
       498   0.32244899    -1.2457043      0             -0.88294921    -0.0014280492 
       499   0.3205023     -1.2435132      0             -0.88294812    -0.029524641  
       500   0.31818151    -1.2409012      0             -0.88294698    -0.057245721  
       501   0.31550051    -1.2378839      0             -0.88294579    -0.084573018  
       502   0.31247396    -1.2344778      0             -0.88294456    -0.11148954   
       503   0.30911713    -1.2307001      0             -0.88294329    -0.13797956   
       504   0.30544585    -1.2265686      0             -0.882942      -0.16402857   
       505   0.30147641    -1.2221016      0             -0.88294068    -0.18962325   
       506   0.29722545    -1.217318       0             -0.88293935    -0.21475146   
       507   0.29270994    -1.2122367      0             -0.88293801    -0.23940221   
       508   0.28794701    -1.2068771      0             -0.88293667    -0.2635656    
       509   0.28295398    -1.2012585      0             -0.88293532    -0.28723281   
       510   0.27774821    -1.1954007      0             -0.88293398    -0.31039608   
       511   0.27234709    -1.1893231      0             -0.88293265    -0.33304866   
       512   0.26676794    -1.1830453      0             -0.88293133    -0.35518477   
       513   0.26102799    -1.1765865      0             -0.88293002    -0.37679959   
       514   0.25514432    -1.1699661      0             -0.88292874    -0.39788921   
       515   0.2491338     -1.163203       0             -0.88292748    -0.4184506    
       516   0.24301306    -1.1563159      0             -0.88292624    -0.43848156   
       517   0.23679846    -1.1493233      0             -0.88292503    -0.45798072   
       518   0.23050603    -1.1422431      0             -0.88292384    -0.47694748   
       519   0.22415147    -1.1350931      0             -0.88292269    -0.49538197   
       520   0.21775012    -1.1278905      0             -0.88292157    -0.51328501   
       521   0.21131691    -1.120652       0             -0.88292048    -0.5306581    
       522   0.20486637    -1.1133941      0             -0.88291943    -0.54750336   
       523   0.1984126     -1.1061326      0             -0.88291841    -0.56382349   
       524   0.19196925    -1.0988828      0             -0.88291743    -0.57962177   
       525   0.18554954    -1.0916597      0             -0.88291649    -0.59490194   
       526   0.1791662     -1.0844776      0             -0.88291558    -0.60966827   
       527   0.17283152    -1.0773502      0             -0.88291471    -0.62392543   
       528   0.1665573     -1.0702908      0             -0.88291387    -0.6376785    
       529   0.16035488    -1.0633123      0             -0.88291307    -0.65093292   
       530   0.15423512    -1.0564268      0             -0.88291231    -0.66369447   
       531   0.14820842    -1.0496461      0             -0.88291158    -0.67596918   
       532   0.14228471    -1.0429812      0             -0.88291089    -0.68776337   
       533   0.13647344    -1.0364429      0             -0.88291023    -0.69908354   
       534   0.13078365    -1.0300412      0             -0.88290961    -0.7099364    
       535   0.12522387    -1.0237859      0             -0.88290902    -0.72032877   
       536   0.11980224    -1.017686       0             -0.88290846    -0.73026759   
       537   0.11452645    -1.0117502      0             -0.88290793    -0.73975988   
       538   0.10940378    -1.0059867      0             -0.88290744    -0.74881269   
       539   0.10444106    -1.0004032      0             -0.88290697    -0.75743308   
       540   0.099644781   -0.99500692     0             -0.88290654    -0.76562809   
       541   0.095020996   -0.98980475     0             -0.88290613    -0.7734047    
       542   0.0905754     -0.98480307     0             -0.88290575    -0.78076981   
       543   0.086313321   -0.98000788     0             -0.88290539    -0.7877302    
       544   0.08223973    -0.97542476     0             -0.88290506    -0.79429252   
       545   0.078359257   -0.97105892     0             -0.88290476    -0.80046325   
       546   0.0746762     -0.9669152      0             -0.88290448    -0.80624868   
       547   0.071194535   -0.96299807     0             -0.88290422    -0.81165488   
       548   0.067917932   -0.95931165     0             -0.88290398    -0.81668768   
       549   0.064849761   -0.95585974     0             -0.88290376    -0.82135267   
       550   0.061993104   -0.95264581     0             -0.88290357    -0.82565514   
       551   0.059350764   -0.949673       0             -0.88290339    -0.82960011   
       552   0.056925277   -0.94694416     0             -0.88290323    -0.83319224   
       553   0.054718917   -0.94446187     0             -0.88290309    -0.83643592   
       554   0.052733708   -0.94222838     0             -0.88290296    -0.83933514   
       555   0.050971428   -0.94024571     0             -0.88290285    -0.84189357   
       556   0.049433619   -0.93851558     0             -0.88290276    -0.8441145    
       557   0.048121592   -0.93703948     0             -0.88290269    -0.84600083   
       558   0.047036432   -0.93581861     0             -0.88290263    -0.8475551    
       559   0.046179004   -0.93485396     0             -0.88290258    -0.84877943   
       560   0.045549957   -0.93414625     0             -0.88290255    -0.84967555   
       561   0.045149726   -0.93369598     0             -0.88290254    -0.85024477   
       562   0.044978536   -0.93350339     0             -0.88290254    -0.85048802   
       563   0.045036403   -0.9335685      0             -0.88290255    -0.8504058    
       564   0.045323137   -0.93389111     0             -0.88290258    -0.8499982    
       565   0.045838337   -0.93447075     0             -0.88290262    -0.8492649    
       566   0.046581398   -0.93530675     0             -0.88290268    -0.84820519   
       567   0.047551504   -0.93639819     0             -0.88290275    -0.84681794   
       568   0.048747627   -0.93774391     0             -0.88290283    -0.84510164   
       569   0.050168526   -0.93934253     0             -0.88290294    -0.84305436   
       570   0.051812742   -0.94119239     0             -0.88290305    -0.84067381   
       571   0.053678594   -0.9432916      0             -0.88290319    -0.83795733   
       572   0.055764175   -0.94563803     0             -0.88290334    -0.83490189   
       573   0.058067344   -0.94822926     0             -0.8829035     -0.8315041    
       574   0.060585724   -0.95106263     0             -0.88290369    -0.82776025   
       575   0.063316691   -0.95413516     0             -0.88290389    -0.8236663    
       576   0.066257367   -0.95744365     0             -0.88290411    -0.81921791   
       577   0.069404618   -0.96098454     0             -0.88290435    -0.81441045   
       578   0.072755036   -0.96475402     0             -0.88290461    -0.809239     
       579   0.076304941   -0.96874795     0             -0.88290489    -0.80369841   
       580   0.080050362   -0.97296185     0             -0.88290519    -0.79778329   
       581   0.083987034   -0.97739093     0             -0.88290551    -0.79148807   
       582   0.088110388   -0.98203005     0             -0.88290586    -0.78480694   
       583   0.092415537   -0.98687371     0             -0.88290623    -0.77773398   
       584   0.096897273   -0.99191606     0             -0.88290663    -0.7702631    
       585   0.10155005    -0.99715086     0             -0.88290705    -0.76238813   
       586   0.10636798    -1.0025715      0             -0.8829075     -0.75410279   
       587   0.11134481    -1.0081709      0             -0.88290797    -0.74540077   
       588   0.11647395    -1.0139417      0             -0.88290847    -0.7362757    
       589   0.1217484     -1.019876       0             -0.882909      -0.72672126   
       590   0.12716082    -1.0259655      0             -0.88290956    -0.71673113   
       591   0.13270344    -1.0322015      0             -0.88291015    -0.70629907   
       592   0.13836812    -1.0385749      0             -0.88291077    -0.69541892   
       593   0.14414631    -1.045076       0             -0.88291143    -0.68408467   
       594   0.15002904    -1.0516948      0             -0.88291211    -0.67229047   
       595   0.15600694    -1.0584206      0             -0.88291282    -0.66003065   
       596   0.16207022    -1.0652426      0             -0.88291357    -0.64729978   
       597   0.16820866    -1.0721491      0             -0.88291435    -0.6340927    
       598   0.17441162    -1.0791282      0             -0.88291516    -0.62040452   
       599   0.18066804    -1.0861676      0             -0.88291601    -0.60623071   
       600   0.18696645    -1.0932541      0             -0.88291688    -0.59156709   
       601   0.19329494    -1.1003746      0             -0.88291779    -0.57640987   
       602   0.19964121    -1.1075151      0             -0.88291873    -0.56075572   
       603   0.20599255    -1.1146613      0             -0.8829197     -0.54460176   
       604   0.21233586    -1.1217985      0             -0.8829207     -0.52794561   
       605   0.21865765    -1.1289116      0             -0.88292173    -0.51078543   
       606   0.22494407    -1.1359849      0             -0.88292279    -0.49311995   
       607   0.23118093    -1.1430024      0             -0.88292388    -0.47494851   
       608   0.2373537     -1.1499479      0             -0.88292499    -0.45627106   
       609   0.24344754    -1.1568046      0             -0.88292613    -0.43708826   
       610   0.24944734    -1.1635555      0             -0.88292728    -0.41740142   
       611   0.25533773    -1.1701834      0             -0.88292846    -0.39721262   
       612   0.26110314    -1.1766707      0             -0.88292965    -0.3765247    
       613   0.2667278     -1.1829996      0             -0.88293086    -0.35534127   
       614   0.27219579    -1.1891523      0             -0.88293207    -0.33366679   
       615   0.27749113    -1.1951108      0             -0.8829333     -0.31150656   
       616   0.28259773    -1.200857       0             -0.88293453    -0.28886677   
       617   0.28749956    -1.2063728      0             -0.88293576    -0.26575452   
       618   0.29218058    -1.2116401      0             -0.88293698    -0.24217786   
       619   0.2966249     -1.2166412      0             -0.8829382     -0.21814578   
       620   0.30081679    -1.2213583      0             -0.88293941    -0.19366831   
       621   0.30474076    -1.2257739      0             -0.88294059    -0.16875646   
       622   0.30838162    -1.2298711      0             -0.88294176    -0.1434223    
       623   0.31172456    -1.233633       0             -0.88294289    -0.11767899   
       624   0.31475522    -1.2370436      0             -0.88294399    -0.091540758  
       625   0.3174598     -1.2400873      0             -0.88294505    -0.065022969  
       626   0.31982509    -1.2427493      0             -0.88294606    -0.038142125  
       627   0.3218386     -1.2450154      0             -0.88294702    -0.010915892  
       628   0.32348862    -1.2468726      0             -0.88294792     0.016636882  
       629   0.32476434    -1.2483086      0             -0.88294875     0.044496144  
       630   0.32565592    -1.2493124      0             -0.88294951     0.072640622  
       631   0.32615457    -1.2498741      0             -0.88295019     0.10104781   
       632   0.32625271    -1.2499851      0             -0.88295077     0.12969394   
       633   0.32594398    -1.2496382      0             -0.88295127     0.158554     
       634   0.32522339    -1.248828       0             -0.88295166     0.18760168   
       635   0.3240874     -1.2475503      0             -0.88295194     0.21680941   
       636   0.322534      -1.2458029      0             -0.88295211     0.24614833   
       637   0.32056284    -1.2435853      0             -0.88295215     0.27558827   
       638   0.31817526    -1.2408992      0             -0.88295206     0.30509781   
       639   0.3153744     -1.237748       0             -0.88295184     0.33464423   
       640   0.31216528    -1.2341374      0             -0.88295148     0.36419353   
       641   0.30855486    -1.2300752      0             -0.88295098     0.39371048   
       642   0.30455211    -1.2255714      0             -0.88295032     0.42315859   
       643   0.30016804    -1.2206386      0             -0.88294952     0.45250018   
       644   0.29541577    -1.2152913      0             -0.88294856     0.48169639   
       645   0.29031053    -1.2095468      0             -0.88294744     0.51070722   
       646   0.28486971    -1.2034246      0             -0.88294616     0.53949157   
       647   0.27911285    -1.1969467      0             -0.88294473     0.56800733   
       648   0.27306162    -1.1901375      0             -0.88294314     0.59621137   
       649   0.26673979    -1.1830237      0             -0.88294139     0.6240597    
       650   0.26017321    -1.1756344      0             -0.8829395      0.65150749   
       651   0.25338973    -1.1680009      0             -0.88293747     0.67850915   
       652   0.24641912    -1.1601568      0             -0.88293529     0.70501849   
       653   0.23929297    -1.1521376      0             -0.88293299     0.73098877   
       654   0.23204457    -1.1439807      0             -0.88293057     0.75637282   
       655   0.22470878    -1.1357254      0             -0.88292805     0.78112323   
       656   0.21732184    -1.1274125      0             -0.88292543     0.80519239   
       657   0.20992124    -1.1190841      0             -0.88292273     0.82853272   
       658   0.20254546    -1.1107836      0             -0.88291996     0.85109679   
       659   0.1952338     -1.1025552      0             -0.88291715     0.87283747   
       660   0.18802612    -1.0944437      0             -0.88291431     0.89370814   
       661   0.18096258    -1.0864944      0             -0.88291146     0.91366284   
       662   0.17408341    -1.0787525      0             -0.88290862     0.93265645   
       663   0.16742861    -1.071263       0             -0.88290581     0.9506449    
       664   0.16103763    -1.0640704      0             -0.88290306     0.96758537   
       665   0.15494913    -1.0572182      0             -0.88290038     0.98343643   
       666   0.14920066    -1.0507485      0             -0.8828978      0.99815831   
       667   0.14382833    -1.0447022      0             -0.88289534     1.0117131    
       668   0.13886653    -1.0391179      0             -0.88289301     1.0240647    
       669   0.13434766    -1.034032       0             -0.88289086     1.0351796    
       670   0.13030181    -1.0294784      0             -0.88288888     1.0450262    
       671   0.12675648    -1.0254882      0             -0.88288711     1.0535759    
       672   0.12373636    -1.022089       0             -0.88288556     1.0608026    
       673   0.12126305    -1.0193052      0             -0.88288424     1.066683     
       674   0.11935486    -1.0171574      0             -0.88288317     1.071197     
       675   0.11802663    -1.0156623      0             -0.88288237     1.0743276    
       676   0.11728956    -1.0148326      0             -0.88288184     1.076061     
       677   0.11715104    -1.0146765      0             -0.88288159     1.0763867    
       678   0.11761462    -1.0151981      0             -0.88288162     1.0752979    
       679   0.11867988    -1.0163968      0             -0.88288194     1.072791     
       680   0.12034245    -1.0182678      0             -0.88288255     1.068866     
       681   0.12259398    -1.0208017      0             -0.88288345     1.0635265    
       682   0.12542218    -1.0239846      0             -0.88288462     1.0567795    
       683   0.12881095    -1.0277984      0             -0.88288606     1.0486355    
       684   0.13274044    -1.0322208      0             -0.88288776     1.0391086    
       685   0.13718723    -1.0372253      0             -0.88288971     1.0282162    
       686   0.14212448    -1.0427819      0             -0.88289189     1.0159791    
       687   0.14752218    -1.0488567      0             -0.88289428     1.0024211    
       688   0.15334737    -1.0554127      0             -0.88289686     0.98756918   
       689   0.15956439    -1.0624096      0             -0.88289962     0.97145341   
       690   0.16613521    -1.0698046      0             -0.88290253     0.95410649   
       691   0.17301966    -1.0775527      0             -0.88290556     0.93556385   
       692   0.18017582    -1.0856065      0             -0.8829087      0.91586337   
       693   0.18756029    -1.0939172      0             -0.88291192     0.89504523   
       694   0.19512857    -1.1024348      0             -0.88291519     0.87315172   
       695   0.20283536    -1.1111083      0             -0.88291849     0.85022707   
       696   0.21063492    -1.1198861      0             -0.8829218      0.82631722   
       697   0.21848139    -1.1287167      0             -0.88292508     0.80146965   
       698   0.22632913    -1.1375486      0             -0.88292833     0.77573317   
       699   0.234133      -1.1463311      0             -0.88293151     0.74915775   
       700   0.2418487     -1.1550144      0             -0.8829346      0.7217943    
       701   0.24943302    -1.1635497      0             -0.8829376      0.69369448   
       702   0.25684416    -1.1718901      0             -0.88294047     0.66491055   
       703   0.2640419     -1.1799903      0             -0.8829432      0.63549516   
       704   0.27098788    -1.1878071      0             -0.88294578     0.6055012    
       705   0.27764582    -1.1952997      0             -0.88294819     0.57498163   
       706   0.28398162    -1.2024297      0             -0.88295042     0.54398932   
       707   0.2899636     -1.2091615      0             -0.88295247     0.5125769    
       708   0.29556258    -1.2154622      0             -0.88295433     0.48079664   
       709   0.30075201    -1.221302       0             -0.88295598     0.44870032   
       710   0.30550806    -1.226654       0             -0.88295743     0.41633906   
       711   0.30980963    -1.2314945      0             -0.88295868     0.38376328   
       712   0.31363846    -1.235803       0             -0.88295971     0.35102256   
       713   0.3169791     -1.239562       0             -0.88296054     0.31816553   
       714   0.31981891    -1.2427574      0             -0.88296117     0.28523979   
       715   0.32214806    -1.2453782      0             -0.88296159     0.25229186   
       716   0.32395945    -1.2474162      0             -0.88296182     0.21936707   
       717   0.3252487     -1.2488666      0             -0.88296186     0.1865095    
       718   0.32601403    -1.2497275      0             -0.88296171     0.15376192   
       719   0.3262562     -1.2499996      0             -0.88296139     0.12116576   
       720   0.32597843    -1.2496866      0             -0.88296089     0.088761029  
       721   0.32518625    -1.2487948      0             -0.88296024     0.056586274  
       722   0.3238874     -1.2473328      0             -0.88295943     0.024678562  
       723   0.32209172    -1.2453117      0             -0.88295849    -0.0069265722 
       724   0.31981101    -1.2427448      0             -0.88295741    -0.038195146  
       725   0.31705887    -1.2396474      0             -0.88295621    -0.069094759  
       726   0.31385061    -1.2360368      0             -0.88295491    -0.099594614  
       727   0.31020307    -1.231932       0             -0.8829535     -0.12966553   
       728   0.30613447    -1.2273533      0             -0.88295201    -0.15927997   
       729   0.30166433    -1.2223228      0             -0.88295044    -0.18841203   
       730   0.29681323    -1.2168637      0             -0.8829488     -0.21703745   
       731   0.29160278    -1.2110002      0             -0.8829471     -0.24513363   
       732   0.28605539    -1.2047577      0             -0.88294535    -0.27267963   
       733   0.2801942     -1.198162       0             -0.88294357    -0.29965614   
       734   0.2740429     -1.19124        0             -0.88294175    -0.32604549   
       735   0.26762565    -1.1840188      0             -0.88293992    -0.35183163   
       736   0.26096694    -1.1765259      0             -0.88293807    -0.37700013   
       737   0.25409146    -1.1687891      0             -0.88293622    -0.40153813   
       738   0.24702404    -1.1608364      0             -0.88293437    -0.42543433   
       739   0.23978947    -1.1526957      0             -0.88293254    -0.44867897   
       740   0.2324125     -1.1443948      0             -0.88293072    -0.47126378   
       741   0.22491766    -1.1359613      0             -0.88292892    -0.49318196   
       742   0.21732925    -1.1274226      0             -0.88292715    -0.51442812   
       743   0.20967121    -1.1188055      0             -0.88292541    -0.53499823   
       744   0.20196708    -1.1101367      0             -0.88292371    -0.55488961   
       745   0.19423995    -1.101442       0             -0.88292205    -0.57410081   
       746   0.18651236    -1.0927468      0             -0.88292044    -0.59263163   
       747   0.1788063     -1.084076       0             -0.88291888    -0.61048299   
       748   0.17114312    -1.0754534      0             -0.88291736    -0.62765689   
       749   0.16354353    -1.0669024      0             -0.8829159     -0.64415636   
       750   0.15602756    -1.0584455      0             -0.88291449    -0.65998535   
       751   0.14861453    -1.0501045      0             -0.88291314    -0.67514871   
       752   0.14132302    -1.0419002      0             -0.88291184    -0.68965204   
       753   0.13417087    -1.0338528      0             -0.88291061    -0.70350168   
       754   0.12717517    -1.0259815      0             -0.88290943    -0.71670457   
       755   0.12035224    -1.0183046      0             -0.8829083     -0.72926823   
       756   0.11371764    -1.0108396      0             -0.88290724    -0.74120061   
       757   0.10728616    -1.0036032      0             -0.88290623    -0.75251007   
       758   0.10107185    -0.9966111      0             -0.88290527    -0.76320522   
       759   0.095087976   -0.98987835     0             -0.88290437    -0.77329493   
       760   0.089347095   -0.98341901     0             -0.88290353    -0.78278814   
       761   0.083861017   -0.97724638     0             -0.88290274    -0.79169387   
       762   0.078640837   -0.97137294     0             -0.882902      -0.80002108   
       763   0.07369695    -0.96581038     0             -0.88290131    -0.80777861   
       764   0.069039065   -0.96056961     0             -0.88290066    -0.81497509   
       765   0.064676222   -0.95566082     0             -0.88290007    -0.82161888   
       766   0.060616809   -0.95109343     0             -0.88289952    -0.82771799   
       767   0.056868576   -0.94687617     0             -0.88289902    -0.83328      
       768   0.053438659   -0.94301705     0             -0.88289856    -0.83831199   
       769   0.050333588   -0.93952343     0             -0.88289814    -0.84282051   
       770   0.047559305   -0.93640198     0             -0.88289776    -0.84681146   
       771   0.045121182   -0.93365875     0             -0.88289742    -0.85029009   
       772   0.043024028   -0.93129916     0             -0.88289713    -0.85326093   
       773   0.041272101   -0.92932798     0             -0.88289686    -0.85572773   
       774   0.03986912    -0.9277494      0             -0.88289664    -0.85769342   
       775   0.038818273   -0.92656701     0             -0.88289645    -0.85916008   
       776   0.038122215   -0.9257838      0             -0.8828963     -0.86012893   
       777   0.03778308    -0.92540216     0             -0.88289619    -0.86060024   
       778   0.037802475   -0.9254239      0             -0.88289612    -0.86057337   
       779   0.038181479   -0.92585024     0             -0.88289608    -0.86004674   
       780   0.03892064    -0.9266818      0             -0.88289608    -0.85901778   
       781   0.040019966   -0.92791858     0             -0.88289611    -0.85748299   
       782   0.041478916   -0.92955997     0             -0.88289619    -0.85543788   
       783   0.043296383   -0.93160474     0             -0.88289631    -0.85287701   
       784   0.045470683   -0.93405099     0             -0.88289647    -0.84979401   
       785   0.047999535   -0.93689615     0             -0.88289668    -0.84618158   
       786   0.050880037   -0.94013697     0             -0.88289693    -0.8420315    
       787   0.054108649   -0.94376945     0             -0.88289722    -0.83733473   
       788   0.057681157   -0.94778888     0             -0.88289757    -0.83208135   
       789   0.061592656   -0.95218971     0             -0.88289797    -0.82626069   
       790   0.065837508   -0.95696563     0             -0.88289843    -0.81986133   
       791   0.070409321   -0.96210943     0             -0.88289895    -0.81287118   
       792   0.075300906   -0.96761304     0             -0.88289952    -0.80527751   
       793   0.080504246   -0.97346744     0             -0.88290016    -0.79706706   
       794   0.08601046    -0.97966264     0             -0.88290087    -0.78822608   
       795   0.091809763   -0.98618763     0             -0.88290165    -0.77874043   
       796   0.097891433   -0.99303036     0             -0.88290249    -0.76859565   
       797   0.10424377    -1.0001777      0             -0.88290342    -0.75777703   
       798   0.11085406    -1.0076152      0             -0.88290443    -0.74626974   
       799   0.11770854    -1.0153276      0             -0.88290551    -0.73405892   
       800   0.12479238    -1.0232981      0             -0.88290668    -0.72112975   
       801   0.1320896     -1.0315087      0             -0.88290794    -0.70746757   
       802   0.13958312    -1.0399403      0             -0.88290929    -0.693058     
       803   0.14725465    -1.0485722      0             -0.88291073    -0.67788704   
       804   0.15508475    -1.0573826      0             -0.88291226    -0.66194118   
       805   0.16305274    -1.0663482      0             -0.88291389    -0.6452075    
       806   0.17113673    -1.0754444      0             -0.88291562    -0.6276738    
       807   0.17931363    -1.0846453      0             -0.88291744    -0.60932873   
       808   0.18755909    -1.0939233      0             -0.88291935    -0.59016186   
       809   0.19584757    -1.1032499      0             -0.88292136    -0.57016384   
       810   0.20415233    -1.1125948      0             -0.88292347    -0.54932648   
       811   0.21244546    -1.1219268      0             -0.88292566    -0.5276429    
       812   0.22069792    -1.1312131      0             -0.88292795    -0.5051076    
       813   0.22887958    -1.1404198      0             -0.88293032    -0.48171659   
       814   0.23695929    -1.149512       0             -0.88293277    -0.4574675    
       815   0.24490494    -1.1584534      0             -0.8829353     -0.43235969   
       816   0.25268356    -1.1672069      0             -0.88293789    -0.40639432   
[...]
      1785   0.30214866    -1.2228629      0             -0.88294567     0.43959565   
      1786   0.30618721    -1.2274072      0             -0.8829466      0.41150771   
      1787   0.30988201    -1.2315647      0             -0.8829474      0.38326604   
      1788   0.31322096    -1.2353216      0             -0.88294806     0.3549066    
      1789   0.31619382    -1.2386666      0             -0.88294859     0.32646439   
      1790   0.31879213    -1.2415901      0             -0.88294899     0.29797344   
      1791   0.32100922    -1.2440846      0             -0.88294927     0.26946679   
      1792   0.32284013    -1.2461446      0             -0.88294942     0.24097646   
      1793   0.32428158    -1.2477662      0             -0.88294946     0.21253341   
      1794   0.32533192    -1.2489478      0             -0.88294938     0.18416755   
      1795   0.32599105    -1.2496891      0             -0.8829492      0.15590771   
      1796   0.32626038    -1.2499918      0             -0.88294891     0.12778164   
      1797   0.32614271    -1.2498591      0             -0.88294853     0.099815984  
      1798   0.32564221    -1.2492955      0             -0.88294805     0.072036306  
      1799   0.32476431    -1.2483073      0             -0.8829475      0.044467067  
      1800   0.32351564    -1.246902       0             -0.88294686     0.017131635  
      1801   0.32190395    -1.2450881      0             -0.88294615    -0.0099477169 
      1802   0.31993799    -1.2428756      0             -0.88294537    -0.0367498    
      1803   0.31762751    -1.2402755      0             -0.88294453    -0.063254507  
      1804   0.31498309    -1.2372996      0             -0.88294364    -0.089442803  
      1805   0.31201613    -1.2339608      0             -0.8829427     -0.11529671   
      1806   0.30873875    -1.2302728      0             -0.88294171    -0.14079932   
      1807   0.30516368    -1.2262498      0             -0.88294068    -0.16593473   
      1808   0.30130425    -1.2219069      0             -0.88293962    -0.19068808   
      1809   0.29717427    -1.2172596      0             -0.88293854    -0.21504554   
      1810   0.29278798    -1.2123239      0             -0.88293743    -0.23899425   
      1811   0.28815996    -1.2071162      0             -0.8829363     -0.26252233   
      1812   0.2833051     -1.2016534      0             -0.88293515    -0.28561886   
      1813   0.27823851    -1.1959523      0             -0.882934      -0.30827388   
      1814   0.27297549    -1.1900303      0             -0.88293284    -0.33047834   
      1815   0.26753143    -1.1839045      0             -0.88293168    -0.35222409   
      1816   0.26192181    -1.1775926      0             -0.88293052    -0.37350386   
      1817   0.25616211    -1.1711117      0             -0.88292937    -0.39431126   
      1818   0.25026777    -1.1644795      0             -0.88292822    -0.41464072   
      1819   0.24425418    -1.157713       0             -0.88292708    -0.43448748   
      1820   0.23813658    -1.1508296      0             -0.88292596    -0.45384758   
      1821   0.23193009    -1.1438462      0             -0.88292486    -0.47271781   
      1822   0.22564961    -1.1367796      0             -0.88292377    -0.49109572   
      1823   0.21930986    -1.1296463      0             -0.8829227     -0.50897955   
      1824   0.21292529    -1.1224626      0             -0.88292165    -0.52636821   
      1825   0.20651006    -1.1152445      0             -0.88292063    -0.54326129   
      1826   0.20007808    -1.1080075      0             -0.88291963    -0.559659     
      1827   0.1936429     -1.1007669      0             -0.88291866    -0.57556211   
      1828   0.18721777    -1.0935377      0             -0.88291772    -0.59097199   
      1829   0.18081558    -1.0863343      0             -0.8829168     -0.60589051   
      1830   0.17444884    -1.0791709      0             -0.88291592    -0.62032006   
      1831   0.16812972    -1.072061       0             -0.88291506    -0.63426348   
      1832   0.16186999    -1.065018       0             -0.88291423    -0.64772405   
      1833   0.15568103    -1.0580546      0             -0.88291343    -0.66070542   
      1834   0.14957383    -1.0511832      0             -0.88291266    -0.67321164   
      1835   0.143559      -1.0444158      0             -0.88291192    -0.68524706   
      1836   0.13764672    -1.0377638      0             -0.88291122    -0.69681634   
      1837   0.13184679    -1.0312382      0             -0.88291054    -0.70792437   
      1838   0.12616863    -1.0248496      0             -0.88290989    -0.7185763    
      1839   0.12062122    -1.0186081      0             -0.88290927    -0.72877743   
      1840   0.1152132     -1.0125235      0             -0.88290868    -0.73853324   
      1841   0.10995278    -1.006605       0             -0.88290812    -0.74784931   
      1842   0.10484781    -1.0008614      0             -0.88290758    -0.75673131   
      1843   0.099905753   -0.99530105     0             -0.88290708    -0.76518497   
      1844   0.095133715   -0.98993203     0             -0.8829066     -0.77321601   
      1845   0.090538428   -0.98476187     0             -0.88290614    -0.78083016   
      1846   0.086126274   -0.97979777     0             -0.88290571    -0.78803307   
      1847   0.081903286   -0.97504651     0             -0.88290531    -0.79483032   
      1848   0.077875158   -0.97051448     0             -0.88290493    -0.8012274    
      1849   0.074047253   -0.96620773     0             -0.88290458    -0.80722962   
      1850   0.070424612   -0.96213193     0             -0.88290424    -0.81284214   
      1851   0.06701196    -0.95829239     0             -0.88290393    -0.81806992   
      1852   0.063813718   -0.95469407     0             -0.88290364    -0.82291766   
      1853   0.060834007   -0.95134163     0             -0.88290337    -0.82738985   
      1854   0.058076656   -0.94823936     0             -0.88290312    -0.83149068   
      1855   0.055545212   -0.94539126     0             -0.88290289    -0.83522404   
      1856   0.053242944   -0.942801       0             -0.88290268    -0.83859348   
      1857   0.05117285    -0.94047195     0             -0.88290249    -0.84160223   
      1858   0.049337663   -0.93840719     0             -0.88290232    -0.84425314   
      1859   0.047739856   -0.9366095      0             -0.88290216    -0.84654867   
      1860   0.046381647   -0.93508138     0             -0.88290203    -0.8484909    
      1861   0.045264999   -0.93382503     0             -0.88290191    -0.85008149   
      1862   0.044391631   -0.93284239     0             -0.8829018     -0.85132165   
      1863   0.043763009   -0.9321351      0             -0.88290172    -0.85221218   
      1864   0.043380358   -0.93170455     0             -0.88290165    -0.85275341   
      1865   0.043244655   -0.93155184     0             -0.8829016     -0.85294522   
      1866   0.043356631   -0.93167778     0             -0.88290156    -0.85278702   
      1867   0.043716772   -0.93208292     0             -0.88290155    -0.85227776   
      1868   0.04432531    -0.93276752     0             -0.88290155    -0.85141591   
      1869   0.045182228   -0.93373157     0             -0.88290157    -0.85019947   
      1870   0.046287248   -0.93497476     0             -0.88290161    -0.84862597   
      1871   0.047639832   -0.93649647     0             -0.88290166    -0.84669245   
      1872   0.049239171   -0.9382958      0             -0.88290174    -0.84439551   
      1873   0.05108418    -0.94037154     0             -0.88290183    -0.84173129   
      1874   0.053173491   -0.94272213     0             -0.88290195    -0.83869545   
      1875   0.05550544    -0.94534571     0             -0.88290209    -0.83528323   
      1876   0.05807806    -0.94824007     0             -0.88290225    -0.83148946   
      1877   0.060889073   -0.95140264     0             -0.88290243    -0.82730853   
      1878   0.06393587    -0.95483049     0             -0.88290264    -0.82273444   
      1879   0.067215507   -0.95852032     0             -0.88290287    -0.81776081   
      1880   0.070724686   -0.96246841     0             -0.88290313    -0.8123809    
      1881   0.074459745   -0.96667064     0             -0.88290342    -0.80658765   
      1882   0.078416642   -0.97112246     0             -0.88290374    -0.80037366   
      1883   0.082590939   -0.97581889     0             -0.88290409    -0.79373127   
      1884   0.086977789   -0.98075448     0             -0.88290446    -0.78665255   
      1885   0.091571916   -0.98592328     0             -0.88290488    -0.77912935   
      1886   0.096367605   -0.99131888     0             -0.88290532    -0.7711533    
      1887   0.10135868    -0.99693432     0             -0.8829058     -0.76271591   
      1888   0.1065385     -1.0027621      0             -0.88290632    -0.75380852   
      1889   0.11189991    -1.0087943      0             -0.88290687    -0.7444224    
      1890   0.11743527    -1.0150221      0             -0.88290747    -0.73454877   
      1891   0.12313642    -1.0214366      0             -0.8829081     -0.72417882   
      1892   0.12899465    -1.0280278      0             -0.88290878    -0.7133038    
      1893   0.13500071    -1.0347853      0             -0.8829095     -0.70191501   
      1894   0.14114477    -1.0416981      0             -0.88291026    -0.69000385   
      1895   0.14741644    -1.0487546      0             -0.88291107    -0.67756192   
      1896   0.15380474    -1.0559423      0             -0.88291192    -0.664581     
      1897   0.1602981     -1.0632482      0             -0.88291282    -0.65105312   
      1898   0.16688432    -1.0706586      0             -0.88291377    -0.63697062   
      1899   0.17355063    -1.0781592      0             -0.88291477    -0.62232619   
      1900   0.1802836     -1.0857349      0             -0.88291581    -0.60711292   
      1901   0.18706924    -1.0933698      0             -0.8829169     -0.59132434   
      1902   0.1938929     -1.1010476      0             -0.88291804    -0.57495447   
      1903   0.20073935    -1.108751       0             -0.88291923    -0.55799789   
      1904   0.20759274    -1.1164623      0             -0.88292046    -0.54044977   
      1905   0.21443665    -1.124163       0             -0.88292174    -0.52230592   
      1906   0.22125407    -1.1318339      0             -0.88292307    -0.50356285   
      1907   0.22802743    -1.1394553      0             -0.88292444    -0.48421783   
      1908   0.23473863    -1.1470068      0             -0.88292585    -0.46426889   
      1909   0.24136908    -1.1544675      0             -0.8829273     -0.44371493   
      1910   0.24789968    -1.1618159      0             -0.88292879    -0.42255573   
      1911   0.25431091    -1.1690301      0             -0.88293032    -0.40079201   
      1912   0.26058286    -1.1760876      0             -0.88293188    -0.37842546   
      1913   0.26669525    -1.1829656      0             -0.88293346    -0.35545883   
      1914   0.27262752    -1.189641       0             -0.88293507    -0.33189592   
      1915   0.27835886    -1.1960904      0             -0.8829367     -0.30774166   
      1916   0.28386828    -1.2022902      0             -0.88293834    -0.28300216   
      1917   0.2891347     -1.2082165      0             -0.88294       -0.25768472   
      1918   0.294137      -1.2138458      0             -0.88294165    -0.2317979    
      1919   0.29885412    -1.2191542      0             -0.88294331    -0.20535154   
      1920   0.30326515    -1.2241182      0             -0.88294495    -0.17835684   
      1921   0.30734942    -1.2287147      0             -0.88294658    -0.15082634   
      1922   0.3110866     -1.2329206      0             -0.88294818    -0.12277402   
      1923   0.31445682    -1.2367137      0             -0.88294975    -0.094215295  
      1924   0.31744076    -1.2400721      0             -0.88295127    -0.065167074  
      1925   0.32001981    -1.242975       0             -0.88295275    -0.035647787  
      1926   0.32217617    -1.2454024      0             -0.88295416    -0.0056774197 
      1927   0.32389297    -1.2473351      0             -0.88295551     0.024722449  
      1928   0.32515444    -1.2487555      0             -0.88295677     0.055528617  
      1929   0.32594602    -1.2496472      0             -0.88295794     0.086716232  
      1930   0.32625454    -1.2499954      0             -0.88295901     0.11825876   
      1931   0.32606832    -1.2497868      0             -0.88295997     0.15012795   
      1932   0.32537735    -1.2490103      0             -0.8829608      0.18229384   
      1933   0.32417343    -1.2476566      0             -0.8829615      0.2147247    
      1934   0.32245034    -1.2457187      0             -0.88296205     0.24738704   
      1935   0.32020394    -1.2431919      0             -0.88296244     0.28024557   
      1936   0.31743237    -1.2400741      0             -0.88296266     0.31326322   
      1937   0.31413614    -1.2363659      0             -0.88296271     0.34640114   
      1938   0.31031832    -1.2320707      0             -0.88296256     0.37961866   
      1939   0.30598459    -1.2271949      0             -0.88296222     0.41287332   
      1940   0.30114345    -1.2217481      0             -0.88296167     0.44612089   
      1941   0.29580624    -1.2157429      0             -0.88296091     0.47931541   
      1942   0.28998727    -1.2091956      0             -0.88295993     0.51240916   
      1943   0.28370391    -1.2021256      0             -0.88295872     0.54535277   
      1944   0.27697661    -1.194556       0             -0.88295729     0.57809521   
      1945   0.26982896    -1.1865132      0             -0.88295563     0.61058392   
      1946   0.26228767    -1.1780274      0             -0.88295374     0.6427648    
      1947   0.25438264    -1.1691321      0             -0.88295162     0.67458237   
      1948   0.24614681    -1.1598644      0             -0.88294927     0.70597983   
      1949   0.23761618    -1.1502649      0             -0.88294671     0.7368992    
      1950   0.22882967    -1.1403773      0             -0.88294394     0.76728142   
      1951   0.21982903    -1.1302486      0             -0.88294096     0.79706653   
      1952   0.21065862    -1.1199288      0             -0.88293781     0.8261938    
      1953   0.20136526    -1.1094704      0             -0.88293448     0.85460194   
      1954   0.19199801    -1.0989288      0             -0.882931       0.88222925   
      1955   0.18260785    -1.0883612      0             -0.88292739     0.90901388   
      1956   0.17324745    -1.0778271      0             -0.88292368     0.93489401   
      1957   0.16397079    -1.067387       0             -0.88291988     0.95980814   
      1958   0.15483285    -1.057103       0             -0.88291603     0.98369529   
      1959   0.14588918    -1.0470375      0             -0.88291216     1.0064953    
      1960   0.13719548    -1.0372532      0             -0.88290829     1.0281491    
      1961   0.12880723    -1.0278126      0             -0.88290446     1.0485989    
      1962   0.12077917    -1.0187773      0             -0.88290071     1.0677887    
      1963   0.11316485    -1.0102075      0             -0.88289706     1.0856645    
      1964   0.1060162     -1.0021618      0             -0.88289356     1.1021743    
      1965   0.099382984   -0.99469609     0             -0.88289023     1.117269     
      1966   0.093312375   -0.98786354     0             -0.88288711     1.130902     
      1967   0.087848476   -0.98171378     0             -0.88288424     1.1430302    
      1968   0.083031871   -0.9762925      0             -0.88288165     1.1536135    
      1969   0.078899199   -0.97164096     0             -0.88287936     1.1626157    
      1970   0.075482761   -0.96779551     0             -0.8828774      1.1700047    
      1971   0.072810153   -0.96478722     0             -0.8828758      1.1757521    
      1972   0.070903947   -0.96264151     0             -0.88287457     1.1798341    
      1973   0.069781412   -0.96137783     0             -0.88287374     1.1822315    
      1974   0.06945429    -0.96100939     0             -0.88287331     1.1829297    
      1975   0.069928626   -0.961543       0             -0.8828733      1.1819186    
      1976   0.071204653   -0.96297894     0             -0.8828737      1.1791935    
      1977   0.073276739   -0.96531086     0             -0.88287452     1.1747542    
      1978   0.076133397   -0.96852583     0             -0.88287576     1.1686057    
      1979   0.079757351   -0.97260442     0             -0.8828774      1.1607578    
      1980   0.084125674   -0.97752081     0             -0.88287943     1.1512252    
      1981   0.089209971   -0.98324305     0             -0.88288183     1.1400276    
      1982   0.094976636   -0.9897333      0             -0.88288458     1.1271893    
      1983   0.10138714    -0.9969482      0             -0.88288766     1.1127389    
      1984   0.10839841    -1.0048392      0             -0.88289103     1.0967099    
      1985   0.11596318    -1.0133532      0             -0.88289467     1.0791397    
      1986   0.12403046    -1.0224328      0             -0.88289854     1.0600696    
      1987   0.132546      -1.0320168      0             -0.8829026      1.0395449    
      1988   0.14145276    -1.0420412      0             -0.88290682     1.0176143    
      1989   0.15069144    -1.052439       0             -0.88291116     0.99432952   
      1990   0.16020099    -1.0631417      0             -0.88291557     0.96974551   
      1991   0.16991915    -1.0740791      0             -0.88292003     0.94391968   
      1992   0.17978298    -1.0851804      0             -0.8829245      0.91691183   
      1993   0.18972936    -1.0963745      0             -0.88292893     0.88878378   
      1994   0.19969552    -1.1075907      0             -0.88293329     0.85959912   
      1995   0.20961949    -1.1187595      0             -0.88293756     0.82942289   
      1996   0.21944064    -1.1298124      0             -0.88294169     0.79832128   
      1997   0.22910001    -1.1406832      0             -0.88294565     0.76636135   
      1998   0.2385408     -1.1513078      0             -0.88294943     0.73361079   
      1999   0.2477087     -1.1616253      0             -0.882953       0.70013762   
      2000   0.25655222    -1.1715776      0             -0.88295633     0.66600996   
Loop time of 0.16907 on 2 procs for 2000 steps with 4 atoms

Performance: 1022063.975 tau/day, 11829.444 timesteps/s, 47.318 katom-step/s
77.7% CPU use with 2 MPI tasks x 1 OpenMP threads

MPI task timing breakdown:
Section |  min time  |  avg time  |  max time  |%varavg| %total
---------------------------------------------------------------
Pair    | 0.0062012  | 0.0064948  | 0.0067883  |   0.4 |  3.84
Neigh   | 0          | 0          | 0          |   0.0 |  0.00
Comm    | 0.0082196  | 0.0082621  | 0.0083045  |   0.0 |  4.89
Output  | 0.083498   | 0.083982   | 0.084466   |   0.2 | 49.67
Modify  | 0.052629   | 0.060713   | 0.068796   |   3.3 | 35.91
Other   |            | 0.009618   |            |       |  5.69

Nlocal:              2 ave           4 max           0 min
Histogram: 1 0 0 0 0 0 0 0 0 1
Nghost:          101.5 ave         104 max          99 min
Histogram: 1 0 0 0 0 0 0 0 0 1
Neighs:              0 ave           0 max           0 min
Histogram: 2 0 0 0 0 0 0 0 0 0
FullNghs:           49 ave          98 max           0 min
Histogram: 1 0 0 0 0 0 0 0 0 1

Total # of neighbors = 98
Ave neighs/atom = 24.5
Neighbor list builds = 0
Dangerous builds = 0

Total wall time: 0:00:12
