LAMMPS (22 Jul 2025)
OMP_NUM_THREADS environment is not set. Defaulting to 1 thread.
  using 1 OpenMP thread(s) per MPI task
package omp 0
using multi-threaded neighbor list subroutines
# Input script to debug the threebody/table command
# Initialization
units lj
dimension 3
boundary p p p

# Styles of atoms and that stuff
atom_style atomic
pair_style hybrid/overlay zero 0.0 table/omp linear 5000000 threebody/table

newton on

# Create simulaiton box
region simulation_box block -$L $L -$L $L -$L $L
region simulation_box block -1 $L -$L $L -$L $L
region simulation_box block -1 1 -$L $L -$L $L
region simulation_box block -1 1 -1 $L -$L $L
region simulation_box block -1 1 -1 1 -$L $L
region simulation_box block -1 1 -1 1 -1 $L
region simulation_box block -1 1 -1 1 -1 1
# N-atom-types region-ID keyword value Is necesesary the extra/special/per/atom (# of special neighbors per atom)
create_box 4 simulation_box
Created orthogonal box = (-1 -1 -1) to (1 1 1)
  2 by 2 by 2 MPI processor grid

# Atom types
mass 1 1.0      # PA
mass 2 1.0      # PB

# Coefficients
include potential.in
# Script with the pair-wise interaction and bonds between particles

pair_coeff 1 3 zero 0.5
pair_coeff 1 2 table/omp sysFiles/pachTab.table POT 0.6 # sw/omp sysFiles/patchyPot.sw NULL NULL PA PB
Reading pair table potential file sysFiles/pachTab.table with DATE: 2024-07-08
WARNING: 7 of 1000000 force values in table POT are inconsistent with -dE/dr.
WARNING:  Should only be flagged at inflection points (src/pair_table.cpp:469)
pair_coeff 2 2 table/omp sysFiles/pachTab.table POT 0.6 # sw/omp sysFiles/patchyPot.sw NULL NULL PA PB
Reading pair table potential file sysFiles/pachTab.table with DATE: 2024-07-08
WARNING: 7 of 1000000 force values in table POT are inconsistent with -dE/dr.
WARNING:  Should only be flagged at inflection points (src/pair_table.cpp:469)
pair_coeff * * threebody/table swapMech.3b 1 2
ERROR: Number of element to type mappings does not match number of atom types (src/pair.cpp:840)
