LAMMPS (22 Jul 2025)
OMP_NUM_THREADS environment is not set. Defaulting to 1 thread.
  using 1 OpenMP thread(s) per MPI task
package omp 0
using multi-threaded neighbor list subroutines
# Input Script of lammps for assembly simulation of polimeric network.
# Main code is based on: https://github.com/PipeB62/Hydrogel-Simulation
# Patchy particles are with bond style.

# Felipe Benavides modified by Fco. Vazquez

# Initialization
units lj
dimension 3
boundary p p p

# Styles of atoms and that stuff
atom_style full
bond_style harmonic
angle_style harmonic
pair_style hybrid/overlay zero 0.0 lj/cut/omp 1.12 table/omp linear 5000000 threebody/table

newton on

# Create simulaiton box
region simulation_box block -$L $L -$L $L -$L $L
region simulation_box block -9.796741 $L -$L $L -$L $L
region simulation_box block -9.796741 9.796741 -$L $L -$L $L
region simulation_box block -9.796741 9.796741 -9.796741 $L -$L $L
region simulation_box block -9.796741 9.796741 -9.796741 9.796741 -$L $L
region simulation_box block -9.796741 9.796741 -9.796741 9.796741 -9.796741 $L
region simulation_box block -9.796741 9.796741 -9.796741 9.796741 -9.796741 9.796741
# N-atom-types region-ID keyword value Is necesesary the extra/special/per/atom (# of special neighbors per atom)
create_box 4 simulation_box     bond/types 1     angle/types 2     extra/bond/per/atom 10     extra/angle/per/atom 6     extra/special/per/atom 10
Created orthogonal box = (-9.796741 -9.796741 -9.796741) to (9.796741 9.796741 9.796741)
  2 by 2 by 2 MPI processor grid

# Atom types
mass 1 1.0      # CL
mass 2 1.0      # MO
mass 3 1.0      # PA
mass 4 1.0      # PB

# Coefficients
include potential.in
# Script with the pair-wise interaction and bonds between particles

bond_coeff 1 100.0 0.45
angle_coeff 1 100.0 180
angle_coeff 2 100.0 109.4712
pair_coeff 1 3 zero 0.5
pair_coeff 1 4 zero 0.5
pair_coeff 2 3 zero 0.5
pair_coeff 2 4 zero 0.5
pair_coeff 3 3 zero 0.5
pair_coeff 1 1 lj/cut/omp 1.0 1.0 1.12
pair_coeff 2 2 lj/cut/omp 1.0 1.0 1.12
pair_coeff 1 2 lj/cut/omp 1.0 1.0 1.12
pair_coeff 3 4 table/omp sysFiles/pachTab.table POT 0.6 # sw/omp sysFiles/patchyPot.sw NULL NULL PA PB
Reading pair table potential file sysFiles/pachTab.table with DATE: 2024-07-08
WARNING: 7 of 1000000 force values in table POT are inconsistent with -dE/dr.
WARNING:  Should only be flagged at inflection points (src/pair_table.cpp:469)
pair_coeff 4 4 table/omp sysFiles/pachTab.table POT 0.6 # sw/omp sysFiles/patchyPot.sw NULL NULL PA PB
Reading pair table potential file sysFiles/pachTab.table with DATE: 2024-07-08
WARNING: 7 of 1000000 force values in table POT are inconsistent with -dE/dr.
WARNING:  Should only be flagged at inflection points (src/pair_table.cpp:469)
pair_coeff * * threebody/table swapMech.3b NULL NULL PA PB
pair_modify pair lj/cut/omp shift yes


# Molecules
include molecules.in
# Script with all molecule information and create groups for computes

# Read the molecule information
molecule CL sysFiles/molecule.patchy.CL
Read molecule template CL:
# Patchy Cross-Linker
  1 molecules
  0 fragments
  0 bodies
  5 atoms with max type 3
  4 bonds with max type 1
  6 angles with max type 2
  0 dihedrals with max type 0
  0 impropers with max type 0
molecule MO sysFiles/molecule.patchy.MO
Read molecule template MO:
# Patchy Monomer
  1 molecules
  0 fragments
  0 bodies
  3 atoms with max type 4
  2 bonds with max type 1
  1 angles with max type 1
  0 dihedrals with max type 0
  0 impropers with max type 0

# Introduce the molecules
# ID style args keyword arg
region spawn_box block -$L $L -$L $L -$L $L
region spawn_box block -9.796741 $L -$L $L -$L $L
region spawn_box block -9.796741 9.796741 -$L $L -$L $L
region spawn_box block -9.796741 9.796741 -9.796741 $L -$L $L
region spawn_box block -9.796741 9.796741 -9.796741 9.796741 -$L $L
region spawn_box block -9.796741 9.796741 -9.796741 9.796741 -9.796741 $L
region spawn_box block -9.796741 9.796741 -9.796741 9.796741 -9.796741 9.796741

# create_atoms type style args keyword values
# style_random: N seed region-ID
# keyword_mol: template-ID seed
# keyword_overlap: overlap value = only insert if at least this distance from all existing atoms
# keyword_maxtry: maxtry value = number of attempts to insert a particle before failure
create_atoms 0 random ${NCL} ${seed1} spawn_box mol CL ${seed1} overlap 1.0 maxtry 5000 #xls
create_atoms 0 random 25 ${seed1} spawn_box mol CL ${seed1} overlap 1.0 maxtry 5000 
create_atoms 0 random 25 3234 spawn_box mol CL ${seed1} overlap 1.0 maxtry 5000 
create_atoms 0 random 25 3234 spawn_box mol CL 3234 overlap 1.0 maxtry 5000 
Created 125 atoms
  using lattice units in orthogonal box = (-9.796741 -9.796741 -9.796741) to (9.796741 9.796741 9.796741)
  create_atoms CPU = 0.009 seconds
create_atoms 0 random ${NMO} ${seed2} spawn_box mol MO ${seed2} overlap 1.0 maxtry 5000 #mon
create_atoms 0 random 475 ${seed2} spawn_box mol MO ${seed2} overlap 1.0 maxtry 5000 
create_atoms 0 random 475 6321 spawn_box mol MO ${seed2} overlap 1.0 maxtry 5000 
create_atoms 0 random 475 6321 spawn_box mol MO 6321 overlap 1.0 maxtry 5000 
Created 1425 atoms
  using lattice units in orthogonal box = (-9.796741 -9.796741 -9.796741) to (9.796741 9.796741 9.796741)
  create_atoms CPU = 0.007 seconds

# Create patchy particles
group CrossLinker type 1 3
125 atoms in group CrossLinker
group Monomer type 2 4
1425 atoms in group Monomer
group Patches type 3 4
1050 atoms in group Patches
group CL type 1
25 atoms in group CL
group MO type 2
475 atoms in group MO
group PA type 3
100 atoms in group PA
group CM type 1 2
500 atoms in group CM

# Neighbor list
neighbor 1.8 bin # extra-distance style
#neigh_modify delay 0 every 1 check no
#neigh_modify exclude molecule/intra CrossLinker
#neigh_modify exclude molecule/intra Monomer

# COMPUTES

# Compute global kinetic and potential energy and temperature
compute t all temp
compute p all pressure t
compute ep all pe
compute ek all ke
variable eT equal etotal
variable eB equal ebond
variable eA equal eangle
variable eM equal emol
variable ec equal ecouple
variable eC equal econserve

# Potencial energy per pair-wise interaction
compute wcaPair all pair lj/cut/omp epair
compute patchPair all pair table/omp epair
compute swapPair all pair threebody/table epair

# Compute the pressure
compute press all pressure t ke virial
compute pressVirial all pressure t virial
compute pressVirialMod all pressure t pair bond angle

# Computes for the stress
compute cstress all stress/atom t ke pair bond angle
compute cstressVirial all stress/atom t virial
compute cstressVirialMod all stress/atom t pair bond angle
compute stress all reduce sum c_cstress[*]
compute stressVirial all reduce sum c_cstressVirial[*]
compute stressVirialMod all reduce sum c_cstressVirialMod[*]

# Displacement of the central particles
compute disp CM displace/atom
compute redDisp CM reduce ave c_disp[*] # All, because yes

# Get the number of central particles per cluster
compute clusters all aggregate/atom 0.6                             # Create the clusters
compute Nclpart CM chunk/atom c_clusters compress yes discard yes   # Get the number of clusters
compute clsize CM property/chunk Nclpart count                      # Counts the atoms in each chunk
compute idcl CM property/chunk Nclpart id                           # Get the ids of the clusters

# DUMPS and FIXES

thermo ${NsaveStress}
thermo 1000

# Save global energies and temperature
fix Energy all ave/time 1 ${Nsave} ${Nsave} c_t c_wcaPair c_patchPair c_swapPair c_ep c_ek v_eT v_ec v_eC c_p v_eB v_eA v_eM c_redDisp[*] file ${Dir}/${file1_name}
fix Energy all ave/time 1 1000 ${Nsave} c_t c_wcaPair c_patchPair c_swapPair c_ep c_ek v_eT v_ec v_eC c_p v_eB v_eA v_eM c_redDisp[*] file ${Dir}/${file1_name}
fix Energy all ave/time 1 1000 1000 c_t c_wcaPair c_patchPair c_swapPair c_ep c_ek v_eT v_ec v_eC c_p v_eB v_eA v_eM c_redDisp[*] file ${Dir}/${file1_name}
fix Energy all ave/time 1 1000 1000 c_t c_wcaPair c_patchPair c_swapPair c_ep c_ek v_eT v_ec v_eC c_p v_eB v_eA v_eM c_redDisp[*] file /home/franvt/GitRepos/molDynLammps/polymericGels/gel-bonds-1/data/0.050.30.05500-2026-01-26-101526/${file1_name}
fix Energy all ave/time 1 1000 1000 c_t c_wcaPair c_patchPair c_swapPair c_ep c_ek v_eT v_ec v_eC c_p v_eB v_eA v_eM c_redDisp[*] file /home/franvt/GitRepos/molDynLammps/polymericGels/gel-bonds-1/data/0.050.30.05500-2026-01-26-101526/system_assembly.fixf

# Save Pressure and Stress tensor
fix fixStress5 all ave/time 1 ${NsaveStress} ${NsaveStress} c_p c_press[*] c_pressVirial[*] c_pressVirialMod[*] c_stress[*] c_stressVirial[*] c_stressVirialMod[*] file ${Dir}/${file2_name}
fix fixStress5 all ave/time 1 1000 ${NsaveStress} c_p c_press[*] c_pressVirial[*] c_pressVirialMod[*] c_stress[*] c_stressVirial[*] c_stressVirialMod[*] file ${Dir}/${file2_name}
fix fixStress5 all ave/time 1 1000 1000 c_p c_press[*] c_pressVirial[*] c_pressVirialMod[*] c_stress[*] c_stressVirial[*] c_stressVirialMod[*] file ${Dir}/${file2_name}
fix fixStress5 all ave/time 1 1000 1000 c_p c_press[*] c_pressVirial[*] c_pressVirialMod[*] c_stress[*] c_stressVirial[*] c_stressVirialMod[*] file /home/franvt/GitRepos/molDynLammps/polymericGels/gel-bonds-1/data/0.050.30.05500-2026-01-26-101526/${file2_name}
fix fixStress5 all ave/time 1 1000 1000 c_p c_press[*] c_pressVirial[*] c_pressVirialMod[*] c_stress[*] c_stressVirial[*] c_stressVirialMod[*] file /home/franvt/GitRepos/molDynLammps/polymericGels/gel-bonds-1/data/0.050.30.05500-2026-01-26-101526/stress_assembly.fixf

# Save the global cluster information
fix 1 CM ave/time 1 1 ${Ndump} c_idcl c_clsize file ${Dir}/${file3_name} mode vector
fix 1 CM ave/time 1 1 1000 c_idcl c_clsize file ${Dir}/${file3_name} mode vector
fix 1 CM ave/time 1 1 1000 c_idcl c_clsize file /home/franvt/GitRepos/molDynLammps/polymericGels/gel-bonds-1/data/0.050.30.05500-2026-01-26-101526/${file3_name} mode vector
fix 1 CM ave/time 1 1 1000 c_idcl c_clsize file /home/franvt/GitRepos/molDynLammps/polymericGels/gel-bonds-1/data/0.050.30.05500-2026-01-26-101526/clust_assembly.fixf mode vector

# Save atom positions with cluster id
dump dumpID all custom ${Ndump} ${Dir}/traj/${file5_name} id mol c_clusters type x y z vx vy vz
dump dumpID all custom 1000 ${Dir}/traj/${file5_name} id mol c_clusters type x y z vx vy vz
dump dumpID all custom 1000 /home/franvt/GitRepos/molDynLammps/polymericGels/gel-bonds-1/data/0.050.30.05500-2026-01-26-101526/traj/${file5_name} id mol c_clusters type x y z vx vy vz
dump dumpID all custom 1000 /home/franvt/GitRepos/molDynLammps/polymericGels/gel-bonds-1/data/0.050.30.05500-2026-01-26-101526/traj/traj_assembly.*.dumpf id mol c_clusters type x y z vx vy vz
dump_modify dumpID pbc yes # remap atoms via periodic boundary conditions

# RUN SIMULATION

# Brownian Dynamics using Langevin Thermostat

timestep ${tstep}
timestep 0.001

fix VelVerlet all nve # Use Velocity Verlet integrator

# First elevate the temperature
fix ThermoLng all langevin 0.0 ${temp} ${damp} ${seed3} tally yes zero yes # Brownian Dynamics: langevin + nve
fix ThermoLng all langevin 0.0 0.05 ${damp} ${seed3} tally yes zero yes 
fix ThermoLng all langevin 0.0 0.05 1 ${seed3} tally yes zero yes 
fix ThermoLng all langevin 0.0 0.05 1 2010 tally yes zero yes 
run ${stepsheat}
run 500000
WARNING: Using a manybody potential with bonds/angles/dihedrals and special_bond exclusions (src/pair.cpp:250)
Hybrid pair style last /omp style table/omp
Last active /omp style is angle_style harmonic/omp
Neighbor list info ...
  update: every = 1 steps, delay = 0 steps, check = yes
  max neighbors/atom: 2000, page size: 100000
  master list distance cutoff = 2.92
  ghost atom cutoff = 2.92
  binsize = 1.46, bins = 14 14 14
  7 neighbor lists, perpetual/occasional/extra = 6 1 0
  (1) pair zero, perpetual, skip from (7)
      attributes: half, newton on, omp
      pair build: skip/omp
      stencil: none
      bin: none
  (2) pair lj/cut/omp, perpetual, skip from (7)
      attributes: half, newton on, omp
      pair build: skip/omp
      stencil: none
      bin: none
  (3) pair table/omp, perpetual, skip from (7)
      attributes: half, newton on, omp
      pair build: skip/omp
      stencil: none
      bin: none
  (4) pair threebody/table, perpetual, skip from (6)
      attributes: full, newton on, omp
      pair build: skip/omp
      stencil: none
      bin: none
  (5) compute aggregate/atom, occasional, copy from (6)
      attributes: full, newton on, omp
      pair build: copy
      stencil: none
      bin: none
  (6) neighbor class addition, perpetual
      attributes: full, newton on, omp
      pair build: full/bin/omp
      stencil: full/bin/3d
      bin: standard
  (7) neighbor class addition, perpetual, half/full from (6)
      attributes: half, newton on, omp
      pair build: halffull/newton/omp
      stencil: none
      bin: none
Per MPI rank memory allocation (min/avg/max) = 20.03 | 20.03 | 20.03 Mbytes
   Step          Temp          E_pair         E_mol          TotEng         Press     
         0   0              0.00041490155  0.15480456     0.15521947    -0.21361809   
      1000   0.038128237    0              0.00013757075  0.057293028    0.0036255212 
      2000   0.00015524756  8.543009e-08   0.020977048    0.021209855    0.068369326  
      3000   0.0053601671   0              0.0001566732   0.0081917366   0.0024773034 
      4000   0.00032043582  0              0.0030278828   0.0035082264  -0.026562159  
      5000   0.0011098552   0              0.00027894739  0.0019426561  -0.0005261401 
      6000   0.00052871377  0              0.00073390715  0.0015264661   0.0095531329 
      7000   0.00072896697  0              0.00040823029  0.0015009753  -1.2979742e-05
      8000   0.0007251149   0              0.00053299756  0.0016199682  -0.0032626071 
      9000   0.00081771509  1.3387704e-06  0.00052435467  0.0017514747   2.4759112e-06
     10000   0.00090243713  0              0.0006006103   0.0019533927   0.0011493598 
     11000   0.0010197323   0              0.00066288448  0.0021914962  -0.00042254769
     12000   0.0011051079   0              0.00072884253  0.0023854349  -0.00024522879
     13000   0.0011985165   0              0.00078137006  0.0025779849   0.00057614678
     14000   0.0013249056   0              0.00085482435  0.0028409006   0.00081224385
     15000   0.0014112991   0              0.00096232634  0.0030779093  -0.00010780047
     16000   0.0015343975   0              0.0010154688   0.0033155802  -0.00081771796
     17000   0.0016020278   4.7441589e-08  0.0010642477   0.0034657865   0.00030980887
     18000   0.0017598133   0              0.0011497192   0.003787736    0.0012942109 
     19000   0.0018430414   0              0.0012059735   0.003968752    5.7970273e-05
     20000   0.0019080305   0              0.0012946994   0.0041548986  -0.00044607826
     21000   0.001992366    5.7799363e-07  0.0013610759   0.0043482748   0.00069963965
     22000   0.0021283243  -3.6672612e-09  0.0014649008   0.0046553239   0.00056659963
     23000   0.0025735469  -0.0015218821   0.0017283014   0.004064249    0.00012610136
     24000   0.0024444094  -0.0016039619   0.0016864538   0.0037467405  -0.00025353478
     25000   0.0024681684  -0.0016016608   0.0016795706   0.0037777739  -0.00025316254
     26000   0.0025092316  -0.001589946    0.001707866    0.0038793392   0.00073864395
     27000   0.0030589285  -0.0031177114   0.002012252    0.0034799731   0.00066127919
     28000   0.002845273   -0.0031717067   0.0020052056   0.003098655   -0.00065030665
     29000   0.0028512639  -0.0032042003   0.0019482227   0.0030181589  -0.00057429635
     30000   0.0032344357  -0.0047618896   0.0020775691   0.0021642029  -0.00033739482
     31000   0.0030894149  -0.0048363168   0.0022389438   0.0020337595  -5.3009553e-05
     32000   0.0032581607  -0.0048324545   0.0021927205   0.0022443541   0.0004081845 
     33000   0.0032215756  -0.0048326584   0.0023286392   0.0023252265   0.00081874659
     34000   0.0040031854  -0.0075381178   0.0027834668   0.0012462531  -0.00038818505
     35000   0.0034571004  -0.0077706526   0.0024728762  -0.00011547145 -0.00047436738
     36000   0.0044781808  -0.010762873    0.002879389   -0.0011705465   0.00029027022
     37000   0.0046349367  -0.012733258    0.0026719396  -0.0031133985   0.0014358727 
     38000   0.003998545   -0.012685588    0.002635141   -0.004056499    0.00085337462
     39000   0.0042627611  -0.014426017    0.0027870632  -0.0052489372  -0.00031597353
     40000   0.004134619   -0.014466278    0.0026197665  -0.0056485844  -0.0001137876 
     41000   0.0039847584  -0.014424344    0.0027835834  -0.005667479    0.0012337074 
     42000   0.0041003877  -0.014461977    0.0027443035  -0.00557106     0.00093054757
     43000   0.0046610268  -0.016092878    0.0029636582  -0.0061421907  -0.00089918803
     44000   0.0050067312  -0.017410171    0.0032844405  -0.0066204791   0.00065734213
     45000   0.004455419   -0.017661738    0.0034852371  -0.0074976837   0.00065597604
     46000   0.0051730411  -0.018875657    0.0031358034  -0.0079852986   0.0012827956 
     47000   0.0048234191  -0.020213159    0.0036651187  -0.0093175793  -0.00014686758
     48000   0.0050129943  -0.020804911    0.0032635772  -0.010026693    0.0010465819 
     49000   0.0048960789  -0.02092223     0.003432082   -0.010150768    0.00069088756
     50000   0.0049235086  -0.020936616    0.0033882007  -0.010167917    0.00079825125
     51000   0.00492648    -0.020952896    0.0034339135  -0.01013403    -9.9449397e-06
     52000   0.0049640066  -0.020935875    0.0036265379  -0.0098681306   0.0005278417 
     53000   0.0051770599  -0.020929367    0.003623604   -0.0095451832   0.00036990358
     54000   0.0052657508  -0.020944248    0.0034947157  -0.0095560024   0.00086037796
     55000   0.0060853671  -0.023751249    0.0038114575  -0.01081763    -0.0011225271 
     56000   0.0062538265  -0.025626116    0.0044453757  -0.011806053   -0.00027783503
     57000   0.0059547504  -0.025535002    0.0040988231  -0.012509816    0.00078965433
     58000   0.0058286135  -0.025713989    0.0042028718  -0.012773837    0.00087809502
     59000   0.0059676236  -0.025765081    0.004081245   -0.012738176   -0.00083566962
     60000   0.0062263966  -0.028179923    0.0047460447  -0.014100309   -0.00074142725
     61000   0.0059818772  -0.028790768    0.0043156234  -0.015508118    0.0019284784 
     62000   0.0067672005  -0.030551642    0.0044656802  -0.01594171     0.00085783845
     63000   0.0061759127  -0.030546407    0.0042984406  -0.016990074    0.00022777165
     64000   0.006368309   -0.030614988    0.0043737853  -0.016694903    0.00091681367
     65000   0.006979178   -0.03180092     0.0046508149  -0.016688092   -0.0010421423 
     66000   0.006667507   -0.033497093    0.0049865955  -0.018515689   -0.00018351472
     67000   0.0070366041  -0.035029979    0.0048388929  -0.019642989    0.001288804  
     68000   0.0066585769  -0.035294355    0.0049549037  -0.020358029    0.00035402746
     69000   0.00774469    -0.03695675     0.0046795276  -0.020667683    0.00070925206
     70000   0.0075509027  -0.04064005     0.0055705939  -0.02375041    -0.0018496157 
     71000   0.0080932312  -0.043399417    0.005499981   -0.025767421    0.0017198277 
     72000   0.0073398181  -0.043454734    0.0052650805  -0.02718703     0.0016786875 
     73000   0.0082095926  -0.045840785    0.0054637154  -0.028070625    0.0004600615 
     74000   0.0077800166  -0.046450173    0.0052802499  -0.029507427   -0.00041996995
     75000   0.0074292031  -0.046591614    0.0053660244  -0.030088975   -0.00041463259
     76000   0.0080027951  -0.048257038    0.0055370475  -0.030723543    0.0020339269 
     77000   0.0076748602  -0.048277163    0.0053867585  -0.031385542    0.001708909  
     78000   0.008144959   -0.049644101    0.0054825338  -0.03195201    -0.00091277784
     79000   0.0074898826  -0.051124451    0.005852221   -0.034044654    0.00045086305
     80000   0.0082122728  -0.052183593    0.0058364175  -0.034036714   -0.00035149015
     81000   0.0085000032  -0.054556112    0.0056781302  -0.036136202    0.00015970755
     82000   0.0082185397  -0.056153057    0.0062090051  -0.037624196    0.00014269859
     83000   0.0096146426  -0.058705174    0.006278348   -0.038014166    0.00037179401
     84000   0.0092357251  -0.059354831    0.005857861   -0.03965232     0.00047488718
     85000   0.0081015621  -0.059531149    0.0058980691  -0.041488577   -9.8837603e-05
     86000   0.0088965743  -0.061422849    0.0060647872  -0.04202181    -0.00091965681
     87000   0.008721849   -0.062409196    0.0064831676  -0.042851695    0.0029836841 
     88000   0.010043441   -0.06582373     0.0067625536  -0.044005735    0.0013747767 
     89000   0.0095545455  -0.066951882    0.0061576629  -0.046471648    0.00010086466
     90000   0.010147375   -0.069095769    0.0060937386  -0.047790787    0.00022778544
     91000   0.0092176955  -0.069033274    0.0067508475  -0.048464804    0.00063674755
     92000   0.0095120861  -0.070714241    0.0067916841  -0.049663633    0.0015618703 
     93000   0.0092714691  -0.070794768    0.006522662   -0.050373875    0.0014469555 
     94000   0.0093884616  -0.070797593    0.0067830233  -0.049940963    0.0010637428 
     95000   0.010528898   -0.073839706    0.0066369646  -0.051419583    0.0018230506 
     96000   0.0097243418  -0.073761103    0.0063165777  -0.052867424   -0.0007493365 
     97000   0.010361445   -0.075603985    0.0070295896  -0.053042255    0.00013826626
     98000   0.010936829   -0.078282777    0.0072153604  -0.054672758    0.00022203233
     99000   0.010007058   -0.07857286     0.0069755328  -0.056596425   -0.00061588076
    100000   0.010245952   -0.0787175      0.0072617911  -0.056096696   -0.00060968091
    101000   0.010321905   -0.080184721    0.006843532   -0.05786832    -2.6514343e-05
    102000   0.0098863423  -0.080469564    0.0071374487  -0.05851217     0.0013675838 
    103000   0.011470406   -0.083627393    0.0076160969  -0.058816787    0.00050325661
    104000   0.011527542   -0.085612898    0.0075690398  -0.060763701    0.0024648261 
    105000   0.011119937   -0.087780608    0.0078257665  -0.063285697    0.00052593822
    106000   0.01170929    -0.09016856     0.0077799722  -0.064835983   -0.0010794652 
    107000   0.011522565   -0.09285923     0.0077139178  -0.067872615    0.0014563314 
    108000   0.013520888   -0.099770544    0.0085623327  -0.070939963    0.0011599371 
    109000   0.011529412   -0.1033862      0.0088490306  -0.077254211    9.9780679e-05
    110000   0.012026175   -0.10566135     0.0082480033  -0.079385721    0.00075832342
    111000   0.011215969   -0.10599615     0.0076627336  -0.081520322    0.00083506577
    112000   0.011155031   -0.10616894     0.0077189127  -0.081728273   -0.00026488348
    113000   0.011436224   -0.10621597     0.0077084037  -0.081364294    7.3577918e-05
    114000   0.012672019   -0.11039043     0.0085998253  -0.082794837    0.0012530127 
    115000   0.012153045   -0.11208671     0.0085175372  -0.085351362   -6.4095154e-05
    116000   0.012049636   -0.11466189     0.0086054506  -0.087993642   -0.0015391253 
    117000   0.012500978   -0.11861915     0.008675929   -0.091203854   -0.00017766143
    118000   0.012164833   -0.12027147     0.0084421895  -0.0935938     -0.00064637301
    119000   0.012033082   -0.12033109     0.0085189402  -0.093774174    0.00068443672
    120000   0.012304774   -0.11982163     0.0079773638  -0.093399014    0.0024791538 
    121000   0.012028658   -0.12077415     0.0089514016  -0.093791407    0.00090288115
    122000   0.012537071   -0.12184897     0.0084396635  -0.094615833    0.0012764319 
    123000   0.011919732   -0.12178777     0.0082079957  -0.095711706   -0.00048057508
    124000   0.012163611   -0.12283956     0.008478292   -0.096127624   -0.00036466826
    125000   0.013825789   -0.12750224     0.0091808058  -0.097596127    0.00099001493
    126000   0.013504797   -0.12981905     0.0092467565  -0.10032817     0.00012482573
    127000   0.013439961   -0.13079658     0.0090507072  -0.10159894     0.0011432764 
    128000   0.013012717   -0.13093314     0.0089827647  -0.10244389     0.0019440424 
    129000   0.013962174   -0.13409073     0.0097263383  -0.10343465    -0.0010035842 
    130000   0.014523329   -0.1382666      0.0098774655  -0.10661819     0.00054346323
    131000   0.014403762   -0.14060488     0.0095935778  -0.1094196      0.00094257728
    132000   0.013976998   -0.14411563     0.0097865451  -0.11337712    -0.00028717769
    133000   0.014452538   -0.14595335     0.0091556166  -0.11513291     0.0017439295 
    134000   0.01477987    -0.14760491     0.010010159   -0.11543925     0.0016421832 
    135000   0.01407846    -0.14890219     0.0095202403  -0.11827788    -0.00064767521
    136000   0.01398979    -0.15049801     0.0093087004  -0.12021816     0.0015252768 
    137000   0.013813858   -0.15115895     0.0099643113  -0.12048722     0.0022627931 
    138000   0.015546864   -0.1561069      0.0097168719  -0.12308478     0.0025026716 
    139000   0.014323714   -0.15811716     0.010175028   -0.12647042    -0.00051868088
    140000   0.014600742   -0.15968094     0.010616673   -0.12717728     0.0031588726 
    141000   0.014002304   -0.1600271      0.0095521076  -0.12948509    -0.00072309622
    142000   0.014707236   -0.16237418     0.0099462583  -0.1303813      0.0015348817 
    143000   0.014279091   -0.16329044     0.0098474887  -0.13203813    -0.00037088987
    144000   0.015445922   -0.16828354     0.010655802   -0.13447381     0.0027167188 
    145000   0.015508959   -0.17218448     0.010631815   -0.13830424    -0.00074869347
    146000   0.016809512   -0.17680752     0.01127115    -0.14033837    -0.0033860592 
    147000   0.017790705   -0.18476015     0.011735713   -0.1463556      0.001809275  
    148000   0.016435515   -0.18797597     0.011221263   -0.15211734     0.0032478816 
    149000   0.01556594    -0.19066986     0.011013799   -0.15632222     0.00070662537
    150000   0.016020087   -0.19275614     0.010709003   -0.15803251     0.0011539458 
    151000   0.017319484   -0.19676535     0.010654793   -0.16014809     0.00059819689
    152000   0.015894546   -0.19867778     0.010545786   -0.16430556     0.00033713564
    153000   0.015662758   -0.20089609     0.01063063    -0.16678648     0.0013658176 
    154000   0.016448764   -0.20295319     0.010249145   -0.16804682     0.00072499201
    155000   0.015214023   -0.20278702     0.01067193    -0.16930878     0.00050876194
    156000   0.016429981   -0.20554337     0.01122027    -0.16969403    -0.00040984206
    157000   0.016169088   -0.207497       0.01142525    -0.17183377     0.0023347039 
    158000   0.015694694   -0.2078498      0.011196875   -0.17312607     0.0021385957 
    159000   0.016729239   -0.20975725     0.010602912   -0.17407667     0.00065797939
    160000   0.018884262   -0.21742454     0.012472999   -0.17664343    -0.0022252466 
    161000   0.016554474   -0.21829539     0.012129761   -0.18134994     0.0013860148 
    162000   0.017145173   -0.21956637     0.011227418   -0.18263779    -0.00013805396
    163000   0.016977155   -0.2199947      0.011077365   -0.18346803    -0.00020005891
    164000   0.016118114   -0.22138625     0.011393215   -0.18583146     0.0021668194 
    165000   0.015887471   -0.22116355     0.011817581   -0.18553014     0.0040307943 
    166000   0.01643539    -0.22263268     0.012252133   -0.18574337    -0.00010890316
    167000   0.017303351   -0.2265019      0.012157478   -0.18840614    -0.0011023012 
    168000   0.017510164   -0.22726511     0.011294386   -0.18972243     0.0012372189 
    169000   0.017898752   -0.23187567     0.012296958   -0.19274791     0.0021897251 
    170000   0.017634835   -0.23153127     0.012104267   -0.19299182     0.0020629371 
    171000   0.01836716    -0.23446897     0.011809778   -0.19512623    -0.0018338496 
    172000   0.018980666   -0.23819923     0.012423925   -0.19732268     0.0032499168 
    173000   0.017920269   -0.23947281     0.011892009   -0.20071774    -0.00010607443
    174000   0.017708454   -0.24186777     0.012936801   -0.20238542     0.00064821455
    175000   0.018386006   -0.2434897      0.012237923   -0.20369056     3.4361569e-05
    176000   0.01876647    -0.24661441     0.012794033   -0.20568883     0.0009597011 
    177000   0.018231061   -0.24838894     0.012593682   -0.20846631     0.0012085759 
    178000   0.01865116    -0.25250814     0.012963053   -0.2115864      0.0029338567 
    179000   0.019685943   -0.2582975      0.012942926   -0.21584471     0.003523847  
    180000   0.020267829   -0.26185456     0.013464784   -0.21800765     0.0037487838 
    181000   0.018457333   -0.26268002     0.012754781   -0.2222571     -0.001164008  
    182000   0.018179061   -0.26476576     0.012541467   -0.2249733      0.0020453172 
    183000   0.01904667    -0.26771863     0.012933721   -0.22623334     0.0021047531 
    184000   0.019401618   -0.26890303     0.013199089   -0.22662029     0.0036909435 
    185000   0.019051862   -0.26974013     0.013273712   -0.22790706    -0.0016743588 
    186000   0.019071968   -0.26951437     0.013844372   -0.2270805      0.00065408498
    187000   0.021081007   -0.27284822     0.013323397   -0.22792372     0.0054805589 
    188000   0.019702062   -0.27415114     0.013452297   -0.23116481    -0.00050011186
    189000   0.018995161   -0.27446717     0.013906732   -0.23208608     0.00034958661
    190000   0.019539333   -0.2773007      0.014349499   -0.23366111    -0.0024238175 
    191000   0.020425045   -0.27912954     0.013268719   -0.23524302     8.9485553e-05
    192000   0.02042754    -0.28165242     0.013430962   -0.23759991     0.0016272571 
    193000   0.019788786   -0.28244413     0.012944587   -0.23983551     0.00011336533
    194000   0.01898992    -0.28256779     0.013105083   -0.2409962      0.00021929444
    195000   0.019266172   -0.28267788     0.013033495   -0.24076377    -0.0018834085 
    196000   0.02038122    -0.28465615     0.013507624   -0.24059642     0.0028945657 
    197000   0.020446187   -0.28673066     0.014211092   -0.24187007     3.8671082e-05
    198000   0.020236226   -0.28715744     0.013294373   -0.24352831    -0.00089361611
    199000   0.020116882   -0.28840586     0.014251907   -0.2439981      0.00085476724
    200000   0.019771003   -0.29029618     0.015104412   -0.2455544     -0.0012542755 
    201000   0.019552432   -0.2901582      0.014576044   -0.24627243    -0.00039119357
    202000   0.0192759     -0.29026953     0.0145339     -0.24684044    -0.002398628  
    203000   0.020097273   -0.29050403     0.014000926   -0.24637665     0.0032348986 
    204000   0.019570673   -0.29185268     0.014457889   -0.24805773     0.00045829945
    205000   0.020485889   -0.29455992     0.014949177   -0.24890173     0.00031276566
    206000   0.020865907   -0.29601223     0.014927742   -0.24980582     0.0056619956 
    207000   0.022259827   -0.29776004     0.014082299   -0.25030954    -0.00029566679
    208000   0.020246529   -0.2993588      0.014499326   -0.25450927     5.2307611e-05
    209000   0.021667924   -0.30351747     0.015202193   -0.25583436    -0.00024158855
    210000   0.022605359   -0.30451975     0.014781598   -0.25585199    -0.0011951419 
    211000   0.022706968   -0.30582003     0.015283358   -0.25649819     0.0018396129 
    212000   0.022584727   -0.30850233     0.015705649   -0.25894145     1.6971574e-05
    213000   0.021593756   -0.30915881     0.015154039   -0.26163503     0.0039126596 
    214000   0.021140188   -0.31046542     0.0149229     -0.2638527     -0.0016160076 
    215000   0.021195109   -0.31133793     0.014502456   -0.26506332     0.0032519967 
    216000   0.022998512   -0.31297376     0.014927548   -0.2635707      0.0038553082 
    217000   0.023312519   -0.31723663     0.015434993   -0.26685542     0.00071102009
    218000   0.02289239    -0.31884191     0.016038467   -0.26848701    -0.0061743407 
    219000   0.023027776   -0.32019243     0.01546029    -0.27021277    -0.0013228208 
    220000   0.021908721   -0.31995749     0.014957587   -0.27215802     0.0011831529 
    221000   0.022848464   -0.32261258     0.015302838   -0.27305915    -0.00056443261
    222000   0.023008081   -0.3250545      0.015846618   -0.27471803     0.0021087538 
    223000   0.023413639   -0.32674355     0.015506422   -0.27613932     0.0023797355 
    224000   0.023298889   -0.32807623     0.016129973   -0.27702047     0.0043576815 
    225000   0.021834614   -0.32918825     0.015852885   -0.28060458    -0.0039579056 
    226000   0.022172356   -0.32873859     0.015529812   -0.27997171     0.003278102  
    227000   0.021893316   -0.32901334     0.015248014   -0.28094654     0.0018366878 
    228000   0.022637931   -0.33063673     0.016389059   -0.28031268     0.0028434644 
    229000   0.023483438   -0.33280469     0.016031747   -0.28157052     0.0018034445 
    230000   0.02464461    -0.33604782     0.016399761   -0.282705      -0.0029871635 
    231000   0.024744583   -0.34142442     0.018137151   -0.28619434     0.00036097176
    232000   0.024216291   -0.34168832     0.015606347   -0.28978097     0.00080656836
    233000   0.023712463   -0.34325646     0.016246417   -0.29146429     0.0026909988 
    234000   0.023490475   -0.34571632     0.017173704   -0.29332963     0.0019674368 
    235000   0.023699912   -0.34629564     0.01641872    -0.29434998    -5.7987447e-05
    236000   0.02473833    -0.34818477     0.016699167   -0.29440205     0.0031631012 
    237000   0.024739244   -0.34745203     0.016870813   -0.29349629    -0.0017792168 
    238000   0.024760699   -0.34878403     0.017415549   -0.2942514      0.0027218724 
    239000   0.024216089   -0.34948957     0.017402434   -0.29578644    -0.0026934188 
    240000   0.024967685   -0.35041511     0.017262171   -0.29572557    -0.0027910117 
    241000   0.024891729   -0.35298499     0.016811989   -0.29885949     0.0022100832 
    242000   0.023986307   -0.35319563     0.016847566   -0.30039181     0.0039412951 
    243000   0.025249111   -0.35354375     0.016643259   -0.29905126     0.0021099406 
    244000   0.024012096   -0.35385851     0.017593744   -0.30026986     7.7546294e-06
    245000   0.02614311    -0.3559716      0.017787235   -0.298995       7.9917535e-05
    246000   0.025251155   -0.35603724     0.017678466   -0.30050648    -0.0014293135 
    247000   0.024570051   -0.35892106     0.01857851    -0.30351125    -0.0019176141 
    248000   0.025625913   -0.36219177     0.018495676   -0.30528202     0.0022083501 
    249000   0.024612688   -0.36237728     0.01821528    -0.30726678     0.0015097289 
    250000   0.0259148     -0.36405695     0.017424074   -0.30778576     0.0028544124 
    251000   0.026155786   -0.36625943     0.017825088   -0.30922597     0.0025542053 
    252000   0.024988714   -0.36958924     0.01804571    -0.31408465     0.0013622442 
    253000   0.025927356   -0.37237945     0.017253023   -0.31626049    -0.0010461959 
    254000   0.026481719   -0.37598116     0.01977583    -0.31650838     0.0045141134 
    255000   0.026437248   -0.37771545     0.019376104   -0.31870906    -0.00034613659
    256000   0.026576781   -0.37777574     0.017635604   -0.32030069    -0.0020311593 
    257000   0.025495839   -0.37831625     0.017154443   -0.32294272     0.00089913877
    258000   0.02549497    -0.37846404     0.017153563   -0.3230927      0.00017372091
    259000   0.024697026   -0.37835347     0.017929303   -0.32340253     0.0035258765 
    260000   0.02641092    -0.37983631     0.017349701   -0.32289579     0.0025277215 
    261000   0.027445963   -0.38159521     0.018387059   -0.32206577    -0.00089317523
    262000   0.026429763   -0.38277941     0.017693291   -0.32546705    -0.0010953154 
    263000   0.025484224   -0.3833674      0.019066859   -0.32609887    -0.0008836402 
    264000   0.027134902   -0.3859966      0.018524881   -0.32679562     0.0012859847 
    265000   0.02675489    -0.38650158     0.018103719   -0.32829142    -0.0020770954 
    266000   0.026754727   -0.38749274     0.01882412    -0.32856242     0.0031494562 
    267000   0.027817058   -0.38926392     0.019296079   -0.32826917    -0.0010822999 
    268000   0.027967245   -0.39002261     0.018822569   -0.32927624     0.0053439054 
    269000   0.027898375   -0.39167332     0.019786881   -0.33006587     0.0039827187 
    270000   0.02743035    -0.39292295     0.018942319   -0.33286165     0.00093842913
    271000   0.028000417   -0.39633243     0.019650605   -0.33470829     0.0048567698 
    272000   0.028119077   -0.39930695     0.019561401   -0.33759415     0.00028233696
    273000   0.028702742   -0.39934035     0.018966302   -0.33734772     0.00013082295
    274000   0.028309954   -0.40133245     0.020445265   -0.33844965    -0.0015562536 
    275000   0.028213603   -0.40543824     0.019818845   -0.34332629    -0.0030544129 
    276000   0.027907015   -0.40608098     0.019525769   -0.34472169     0.0023304084 
    277000   0.027112805   -0.40844111     0.020032606   -0.34776554     0.0032708418 
    278000   0.027251462   -0.40844221     0.019675782   -0.34791561     0.00090083141
    279000   0.029368066   -0.4110653      0.019689291   -0.34735233     0.0039364645 
    280000   0.030838971   -0.41455872     0.019404971   -0.34892514    -0.0028101875 
    281000   0.030396176   -0.41618098     0.020249701   -0.35036643     0.0011356817 
    282000   0.02820002    -0.4167933      0.020120932   -0.35439963     0.0011331461 
    283000   0.028459081   -0.41774754     0.019647341   -0.35543912     0.0029334785 
    284000   0.028717055   -0.417578       0.019629283   -0.35490092     0.002290415  
    285000   0.028015301   -0.41976866     0.020101011   -0.3576718      0.0014259934 
    286000   0.028361318   -0.41955698     0.018387456   -0.35865499    -0.00098109336
    287000   0.029119757   -0.42126296     0.019677039   -0.35793446     0.0035480821 
    288000   0.02905172    -0.42176324     0.02007744    -0.35813633     0.0031437369 
    289000   0.029128053   -0.422615       0.020261289   -0.35868982     0.001041855  
    290000   0.030734426   -0.42543722     0.020578231   -0.35878709     0.0054165689 
    291000   0.029417051   -0.42626344     0.019690079   -0.36247625    -0.00071803016
    292000   0.029091076   -0.42635985     0.02148576    -0.36126563    -0.0013685805 
    293000   0.028760491   -0.42572546     0.020097981   -0.36251458     0.00058807661
    294000   0.029494707   -0.42712709     0.020635767   -0.3622778      0.00053854439
    295000   0.031981365   -0.42957459     0.021277594   -0.3603559      0.0045099966 
    296000   0.030572527   -0.42986624     0.02197063    -0.3620664     -0.00027157434
    297000   0.031604538   -0.43273416     0.021290035   -0.3640679     -0.0036752225 
    298000   0.030190461   -0.43309172     0.021569492   -0.36626575     0.00088319984
    299000   0.030435178   -0.43306407     0.020308962   -0.36713179    -0.00050357966
    300000   0.029879091   -0.43289674     0.020607778   -0.36749924     0.0042464002 
    301000   0.031017078   -0.43451243     0.020538458   -0.36747837     0.00075634858
    302000   0.029602041   -0.43513417     0.021661019   -0.36909874     9.9177741e-05
    303000   0.031838697   -0.43602615     0.021270801   -0.36702812     0.00024596884
    304000   0.031128368   -0.43779197     0.021615191   -0.36951435     0.0027789836 
    305000   0.031517983   -0.43746994     0.02055776    -0.3696657      0.0022452174 
    306000   0.030994076   -0.43936883     0.022112398   -0.37079531     0.0041780707 
    307000   0.030389243   -0.44062943     0.021485269   -0.3735897      0.00079484622
    308000   0.030670587   -0.44072253     0.021198717   -0.37354762     0.003336946  
    309000   0.030910218   -0.4407577      0.020545076   -0.37387721    -0.0030755973 
    310000   0.032126989   -0.44235556     0.02113911    -0.37305705    -0.0016684455 
    311000   0.032743964   -0.44329385     0.022652449   -0.37155714     0.00065956961
    312000   0.030957428   -0.44488873     0.020882118   -0.37760043    -0.0005293646 
    313000   0.031413018   -0.44545487     0.021945433   -0.37642031    -0.00060695797
    314000   0.031887613   -0.44746788     0.022229665   -0.37743766    -0.0030545821 
    315000   0.032644604   -0.44780676     0.02314555    -0.37572589     0.0051113159 
    316000   0.033484192   -0.45177082     0.023979123   -0.37759782     0.00011509385
    317000   0.032393814   -0.45198994     0.02239136    -0.38103921     0.00091883509
    318000   0.032631509   -0.45348439     0.022916621   -0.38165208     0.00089582808
    319000   0.032157109   -0.45370992     0.022108752   -0.38339662     0.0021270377 
    320000   0.032118822   -0.45358157     0.02279318    -0.38264124     0.0010713022 
    321000   0.032098437   -0.4537661      0.022019982   -0.38362953    -0.0035573693 
    322000   0.03242132    -0.45535373     0.022031115   -0.38472201     0.0024888342 
    323000   0.033553396   -0.45900185     0.023569172   -0.38513506    -0.0010034712 
    324000   0.033108997   -0.45967083     0.021918152   -0.38812122     0.0014630631 
    325000   0.032943478   -0.45996532     0.022676159   -0.38790583    -0.00031307402
    326000   0.032076207   -0.46044553     0.022704907   -0.38965735    -0.0049240971 
    327000   0.034037457   -0.46097697     0.022805347   -0.38714837     0.0028234113 
    328000   0.032635766   -0.46220057     0.022954887   -0.39032362    -0.0024477105 
    329000   0.033590018   -0.46178509     0.022493563   -0.388939       0.0011597373 
    330000   0.032205312   -0.46250106     0.023714883   -0.39050937     0.0029285066 
    331000   0.031946463   -0.46420211     0.023513997   -0.39279934    -0.001391958  
    332000   0.033983739   -0.46439645     0.022629889   -0.39082384     0.0037548628 
    333000   0.033421511   -0.4647293      0.023280439   -0.39134894    -0.0025470059 
    334000   0.034693701   -0.46817948     0.023549373   -0.39262313     0.0045092181 
    335000   0.034317683   -0.46918468     0.022813283   -0.39492808    -0.00020050077
    336000   0.033772186   -0.46953192     0.025930754   -0.39297557    -0.0020472386 
    337000   0.034684728   -0.46913916     0.023750848   -0.39339479     0.0020002858 
    338000   0.033325443   -0.4692306      0.024690729   -0.39458396    -0.00096652603
    339000   0.033681754   -0.47037956     0.023220541   -0.39666899     0.0061473738 
    340000   0.034040266   -0.47284885     0.024785789   -0.3970356     -0.0016575427 
    341000   0.033395579   -0.4726675      0.024105708   -0.39850074     0.0050585502 
    342000   0.036391581   -0.47599547     0.026689509   -0.39475381    -0.002200448  
    343000   0.035993299   -0.47880783     0.025256153   -0.39959656    -0.00091348394
    344000   0.034907032   -0.47887183     0.024376898   -0.40216817     0.0020704787 
    345000   0.034700847   -0.47755284     0.025204256   -0.40033089     0.0055633718 
    346000   0.036801836   -0.47854392     0.024569544   -0.39880724     0.0017485418 
    347000   0.035668844   -0.47996144     0.024573064   -0.40191962     0.0043667673 
    348000   0.036809241   -0.48000512     0.024979067   -0.39984782    -0.0013956314 
    349000   0.036863939   -0.48038775     0.023747752   -0.40137976     0.005935384  
    350000   0.034719834   -0.48131898     0.025184606   -0.40408822     0.00094464657
    351000   0.035783096   -0.48295203     0.025612742   -0.40369927     0.0013729898 
    352000   0.035386097   -0.48451971     0.026414502   -0.40506031     0.0030999228 
    353000   0.036110965   -0.4848268      0.024858154   -0.40583715    -0.0018377679 
    354000   0.035385039   -0.48592124     0.02609433    -0.4067836     -0.0023370617 
    355000   0.037025676   -0.48579951     0.023833645   -0.40646318     0.0072024356 
    356000   0.037329361   -0.48550501     0.024520372   -0.40502672    -0.0010991683 
    357000   0.036673115   -0.48677973     0.024911697   -0.40689385    -0.0030019249 
    358000   0.035091442   -0.48642723     0.023516202   -0.41030783     0.00062626284
    359000   0.036568204   -0.48608306     0.023024637   -0.4082415      0.0027004479 
    360000   0.035536469   -0.48836871     0.026504313   -0.40859408    -0.0020260125 
    361000   0.036775504   -0.48902265     0.026040975   -0.407854      -0.004106479  
    362000   0.03491004    -0.49008759     0.02687293    -0.41088339     0.00020097025
    363000   0.036300366   -0.49212163     0.026635043   -0.41107116    -0.0012883362 
    364000   0.039298463   -0.49211342     0.025677289   -0.40752647     0.0066857075 
    365000   0.037712598   -0.49231797     0.026303376   -0.40948219    -0.0057505238 
    366000   0.037205304   -0.49315944     0.027514145   -0.40987335     0.0053750593 
    367000   0.03635368    -0.49527697     0.026213603   -0.41456803    -0.00037079924
    368000   0.038117633   -0.49519102     0.026786239   -0.41126522    -0.0013909796 
    369000   0.037205244   -0.49741542     0.026628277   -0.41501528    -0.0006296648 
    370000   0.037679956   -0.50045594     0.026995601   -0.41697687    -0.0014868148 
    371000   0.036694324   -0.50086283     0.027861335   -0.41799552    -0.0021366604 
    372000   0.038281238   -0.50148029     0.025568379   -0.4185271      0.0010267849 
    373000   0.03618013    -0.50163508     0.026407116   -0.42099278     0.0027695076 
    374000   0.03792451    -0.50306417     0.026001312   -0.42021279     0.00029499112
    375000   0.038133215   -0.50357178     0.025165146   -0.42124371    -0.00065355975
    376000   0.038222816   -0.50429319     0.025908102   -0.42108785    -0.0014619292 
    377000   0.037757147   -0.50485372     0.024132703   -0.42412183     0.002444614  
    378000   0.037511639   -0.50449991     0.026748145   -0.4215206      0.0030739007 
    379000   0.037488037   -0.50384718     0.026628503   -0.4210229      0.004348244  
    380000   0.038852435   -0.50548561     0.026303415   -0.42094114    -0.0007504111 
    381000   0.039399251   -0.50569418     0.02711105    -0.41952238    -0.00021776222
    382000   0.039770544   -0.50507208     0.027550488   -0.41790426     0.0015640263 
    383000   0.040005061   -0.50757917     0.026940406   -0.42066989    -0.0019260651 
    384000   0.039817505   -0.50949744     0.028174597   -0.42163512     0.00081607106
    385000   0.039971171   -0.51171943     0.027484052   -0.4243173     -0.0016189737 
    386000   0.039051494   -0.51172492     0.027786971   -0.4253985     -0.0050413118 
    387000   0.038492721   -0.51027008     0.028368097   -0.42420016     0.0027068701 
    388000   0.038843992   -0.51024288     0.027906117   -0.42410837     0.005701145  
    389000   0.04131087    -0.51052738     0.028311646   -0.42028941     0.0049571601 
    390000   0.039727705   -0.51399695     0.029953481   -0.42449036     0.0024550467 
    391000   0.040092224   -0.51464102     0.029675034   -0.42486645     0.00019733983
    392000   0.038805126   -0.51466725     0.027449857   -0.42904726     0.0019522389 
    393000   0.039390087   -0.51465392     0.028805631   -0.42680127    -0.0020245661 
    394000   0.040760986   -0.51610291     0.026912549   -0.42808833     0.0012914768 
    395000   0.040245322   -0.51904899     0.029016769   -0.42970319     0.0014264868 
    396000   0.039865192   -0.51937083     0.02765924    -0.43195238     0.0025228714 
    397000   0.04116921    -0.52001125     0.02802129    -0.43027599    -0.00039343091
    398000   0.040671541   -0.5201808      0.027941351   -0.4312715      0.0019755626 
    399000   0.040391184   -0.51991732     0.029307978   -0.43006165    -0.0035630163 
    400000   0.040738704   -0.51868976     0.027534328   -0.4300868      0.0015321856 
    401000   0.041376422   -0.51929977     0.025983676   -0.4312915     -0.0016627831 
    402000   0.041143914   -0.52193879     0.029750997   -0.43051174    -0.00079607232
    403000   0.044038342   -0.52658576     0.029483534   -0.43108734     0.00039158797
    404000   0.042487389   -0.52888581     0.031916307   -0.43327954     0.00093139683
    405000   0.044022282   -0.53174404     0.029332138   -0.43642108    -0.002376251  
    406000   0.042703741   -0.53366705     0.030508325   -0.43914444    -0.0057856902 
    407000   0.041021379   -0.53341225     0.030127129   -0.44179275     4.4664636e-05
    408000   0.040286885   -0.53432318     0.028978699   -0.44495314    -0.00070872138
    409000   0.04004081    -0.53421876     0.029820421   -0.44437587    -0.002667949  
    410000   0.041115713   -0.53546194     0.028239068   -0.4455891      0.0041233789 
    411000   0.041570507   -0.53614937     0.02904821    -0.44478563    -0.0062712828 
    412000   0.041250308   -0.53703461     0.030245276   -0.44495379     0.00088930147
    413000   0.042942994   -0.54098747     0.028691334   -0.4479232      0.0024743001 
    414000   0.04356398    -0.54265754     0.030257005   -0.44709673     0.00268233   
    415000   0.041302149   -0.54532332     0.030420725   -0.45298934     0.0015509538 
    416000   0.044201747   -0.54536183     0.03065811    -0.44844387     0.0046099519 
    417000   0.042808225   -0.54717405     0.03057519    -0.45242795    -0.00037331892
    418000   0.042309789   -0.54996198     0.029937764   -0.45660048     0.0036991654 
    419000   0.042882176   -0.54932342     0.029516769   -0.45552489    -0.0011047935 
    420000   0.043146535   -0.55169724     0.028773595   -0.4582456     -0.0027262617 
    421000   0.043746277   -0.55398662     0.030079878   -0.45832966     0.0025190641 
    422000   0.044371627   -0.5550995      0.02925147    -0.45933353     0.0020501223 
    423000   0.042888673   -0.55576831     0.030349603   -0.4611272     -0.0013931494 
    424000   0.043226044   -0.55560442     0.029693628   -0.46111356     0.00023621383
    425000   0.043099847   -0.55509554     0.028507362   -0.46198012    -0.0074762346 
    426000   0.042013394   -0.55546896     0.029447087   -0.46304244     0.00021570419
    427000   0.041822406   -0.55587216     0.029622342   -0.46355668     0.00021141015
    428000   0.043535635   -0.5552308      0.029090047   -0.46087943     0.0013827047 
    429000   0.043168995   -0.55424388     0.030528893   -0.45900327     0.0047850258 
    430000   0.043756708   -0.5545207      0.028835405   -0.46009258     0.00063816931
    431000   0.041488054   -0.5550095      0.029108306   -0.46370926     0.00013435509
    432000   0.045497736   -0.55643809     0.030307531   -0.45792798     0.0034934135 
    433000   0.043950322   -0.55647802     0.029366286   -0.46122878     0.0074192349 
    434000   0.044189246   -0.55725245     0.032233028   -0.45877832     0.0017570973 
    435000   0.042658005   -0.55672782     0.029768576   -0.46301351     0.0017686984 
    436000   0.043040221   -0.55709125     0.030174427   -0.46239814    -0.0031376906 
    437000   0.042920583   -0.55653356     0.029212689   -0.46298153    -0.0029945093 
    438000   0.044163211   -0.55709453     0.031219783   -0.45967267    -0.0012282603 
    439000   0.043975167   -0.5566962      0.030165459   -0.46061055    -0.0023544496 
    440000   0.04474214    -0.55597433     0.030498687   -0.45840573     0.0057711829 
    441000   0.044376189   -0.55763648     0.030111844   -0.4610033      0.0064645816 
    442000   0.044727642   -0.55692778     0.031528705   -0.4583509      0.0015052092 
    443000   0.046551741   -0.55742737     0.031112488   -0.45653232     0.00096737168
    444000   0.044735185   -0.55904013     0.032137652   -0.45984299    -0.0015892366 
    445000   0.043924846   -0.55868875     0.03081143    -0.46203256     0.00087440132
    446000   0.043670352   -0.56041064     0.030826666   -0.46412071    -0.00072617333
    447000   0.044574672   -0.56135425     0.03149961    -0.46303577     0.00010461798
    448000   0.046559727   -0.56305514     0.031199655   -0.46206095     0.0012413826 
    449000   0.046194995   -0.5640225      0.031841718   -0.46293299     0.0012438641 
    450000   0.047024436   -0.56654816     0.033954076   -0.46210294     0.0032324407 
    451000   0.046920009   -0.56617839     0.031220719   -0.46462306     0.0045401511 
    452000   0.046883647   -0.56805044     0.032638668   -0.46513168    -0.0027764733 
    453000   0.047281026   -0.5689217      0.031950662   -0.46609525    -0.0014053906 
    454000   0.047298989   -0.57124992     0.033149499   -0.46719772     0.0022447532 
    455000   0.044838658   -0.5706472      0.032759475   -0.47067313    -7.7433747e-05
    456000   0.045635046   -0.57214828     0.031580163   -0.47215971     0.0059702682 
    457000   0.046317881   -0.5713502      0.032678615   -0.46923958    -0.0075147311 
    458000   0.048312739   -0.57532501     0.034138215   -0.46876444    -0.0046156856 
    459000   0.04801099    -0.57815851     0.031562482   -0.47462601    -0.00149288   
    460000   0.047389794   -0.57970211     0.032898607   -0.47576467     0.0023608532 
    461000   0.04719454    -0.58266285     0.034152601   -0.47776411     0.00074710159
    462000   0.045800658   -0.58209585     0.032930808   -0.48050838    -0.0049446707 
    463000   0.045870965   -0.58232849     0.033571365   -0.47999507    -0.00014489824
    464000   0.044849062   -0.58323277     0.032161693   -0.48384089    -0.0012351968 
    465000   0.04638757    -0.58404537     0.033398418   -0.48111049    -0.0029526448 
    466000   0.046526175   -0.58379782     0.031980294   -0.48207329     0.0026386727 
    467000   0.046194457   -0.5837952      0.031498513   -0.4830497      0.0021824918 
    468000   0.047090084   -0.58430205     0.032304442   -0.48140806    -0.0023995827 
    469000   0.04889353    -0.58365546     0.031759694   -0.47860279     0.003690589  
    470000   0.047255847   -0.58524464     0.033201424   -0.48120518     0.001053889  
    471000   0.047019824   -0.58552527     0.032273765   -0.48276728     0.0056751097 
    472000   0.048762898   -0.58633553     0.031413838   -0.48182453    -0.00013266802
    473000   0.046545897   -0.58719182     0.033039421   -0.4843786      0.00056034361
    474000   0.045754735   -0.58689854     0.033236297   -0.48507442     0.0073634886 
    475000   0.048300185   -0.58789344     0.031925848   -0.48356406    -0.0016227689 
    476000   0.049191765   -0.58819673     0.033896355   -0.48056033     0.00032088748
    477000   0.049338475   -0.58716082     0.033474696   -0.47972616     6.5625433e-05
    478000   0.047809046   -0.58783879     0.034533296   -0.48163819     0.0024349139 
    479000   0.049314921   -0.58788363     0.033411826   -0.48054715     0.00089002303
    480000   0.047209667   -0.58899679     0.033791841   -0.48443613    -7.8546733e-05
    481000   0.048147779   -0.58863705     0.033068004   -0.48339397     0.0016876377 
    482000   0.047274017   -0.58858972     0.032519378   -0.48520506     0.0041080913 
    483000   0.048236816   -0.59133828     0.033950548   -0.48507919    -0.0021913441 
    484000   0.0482879     -0.59206041     0.035204452   -0.48447084     0.0031983859 
    485000   0.046695049   -0.59235835     0.034892737   -0.48746822     0.00025967262
    486000   0.047951816   -0.59052774     0.034995228   -0.4836512      0.003918723  
    487000   0.048145835   -0.59128365     0.032611117   -0.48650037    -8.6525436e-05
    488000   0.048334228   -0.59123012     0.032107252   -0.48666831     0.0053986627 
    489000   0.04899489    -0.59112438     0.035740648   -0.48193881     0.0046388574 
    490000   0.050465888   -0.59328742     0.033997367   -0.48364006    -0.0038298039 
    491000   0.049027064   -0.59277076     0.033876697   -0.48540091     5.0653587e-05
    492000   0.048767684   -0.59319493     0.033224905   -0.4868657      0.0042540767 
    493000   0.049429638   -0.59398038     0.032174025   -0.48770973     0.0063569218 
    494000   0.048930284   -0.59559715     0.034902822   -0.48734625     0.0038664512 
    495000   0.050151362   -0.59712871     0.034702302   -0.4872479      0.0020984216 
    496000   0.048859317   -0.59660632     0.034167512   -0.48919712    -0.0010176346 
    497000   0.049395913   -0.60022163     0.03546988    -0.49070568    -0.0051773205 
    498000   0.050400261   -0.59859219     0.034041011   -0.48899957     0.0089328102 
    499000   0.048975753   -0.59906537     0.035560184   -0.49008895    -0.00029368024
    500000   0.05074488    -0.5987374      0.032681671   -0.48998752     0.0079390947 
Loop time of 122.747 on 8 procs for 500000 steps with 1550 atoms

Performance: 351942.499 tau/day, 4073.409 timesteps/s, 6.314 Matom-step/s
92.4% CPU use with 8 MPI tasks x 1 OpenMP threads

MPI task timing breakdown:
Section |  min time  |  avg time  |  max time  |%varavg| %total
---------------------------------------------------------------
Pair    | 13.512     | 14.77      | 15.79      |  21.4 | 12.03
Bond    | 4.7578     | 5.2386     | 5.5701     |  11.0 |  4.27
Neigh   | 0.045653   | 0.045737   | 0.045766   |   0.0 |  0.04
Comm    | 11.798     | 13.007     | 14.716     |  29.5 | 10.60
Output  | 0.39499    | 0.41649    | 0.43845    |   2.2 |  0.34
Modify  | 87.828     | 87.922     | 88.069     |   0.7 | 71.63
Other   |            | 1.348      |            |       |  1.10

Nlocal:         193.75 ave         225 max         133 min
Histogram: 1 0 0 0 0 1 1 3 1 1
Nghost:         630.25 ave         656 max         603 min
Histogram: 1 1 1 1 0 0 0 1 2 1
Neighs:              0 ave           0 max           0 min
Histogram: 8 0 0 0 0 0 0 0 0 0
FullNghs:      3062.75 ave        3717 max        1749 min
Histogram: 1 0 0 0 1 2 0 0 1 3

Total # of neighbors = 24502
Ave neighs/atom = 15.807742
Ave special neighs/atom = 2.1612903
Neighbor list builds = 179
Dangerous builds = 0

unfix ThermoLng

# Now we let the system to create the polymeric network
fix ThermoLng all langevin ${temp} ${temp} ${damp} ${seed3} tally yes zero yes # Brownian Dynamics: langevin + nve
fix ThermoLng all langevin 0.05 ${temp} ${damp} ${seed3} tally yes zero yes 
fix ThermoLng all langevin 0.05 0.05 ${damp} ${seed3} tally yes zero yes 
fix ThermoLng all langevin 0.05 0.05 1 ${seed3} tally yes zero yes 
fix ThermoLng all langevin 0.05 0.05 1 2010 tally yes zero yes 
run ${steps}
run 3500000
WARNING: Using a manybody potential with bonds/angles/dihedrals and special_bond exclusions (src/pair.cpp:250)
Hybrid pair style last /omp style table/omp
Last active /omp style is angle_style harmonic/omp
Per MPI rank memory allocation (min/avg/max) = 24.04 | 24.04 | 24.04 Mbytes
   Step          Temp          E_pair         E_mol          TotEng         Press     
    500000   0.05074488    -0.5987374      0.032681671   -0.48998752     0.0079390947 
    501000   0.04991178    -0.59991848     0.035931816   -0.48916729    -0.0032166977 
    502000   0.054238658   -0.59888122     0.035804515   -0.4817712      0.0035478335 
    503000   0.053725608   -0.60051227     0.035425113   -0.48455074     0.0033276853 
    504000   0.051907353   -0.60113421     0.034714356   -0.48860906    -0.0021613071 
    505000   0.049042206   -0.60179399     0.035497651   -0.49278049    -0.011059009  
    506000   0.050462102   -0.6050625      0.034491891   -0.49492629    -0.0023198646 
    507000   0.050828875   -0.60621127     0.036899625   -0.49311752     0.002300513  
    508000   0.050649222   -0.60664467     0.035677426   -0.49504243     0.00081886581
    509000   0.050303386   -0.60697022     0.035628222   -0.4959356      0.0057842672 
    510000   0.049911339   -0.60792498     0.036681368   -0.49642491    -0.0012267452 
    511000   0.051044614   -0.60823691     0.035702224   -0.49601716     0.0020987301 
    512000   0.049742167   -0.60902139     0.03576211    -0.49869416    -0.00053958328
    513000   0.050369928   -0.6102563      0.035003994   -0.49974616     0.0014117606 
    514000   0.049547735   -0.60922148     0.033838506   -0.50110932     0.0043396146 
    515000   0.051420834   -0.61189192     0.035841867   -0.49896856     0.0025357011 
    516000   0.048551132   -0.61275916     0.037065568   -0.50291388    -0.0029978357 
    517000   0.050027648   -0.61250259     0.036875228   -0.5006343      0.003935074  
    518000   0.048871474   -0.61279539     0.037130067   -0.5024054      0.0026884177 
    519000   0.05099934    -0.61272432     0.035365562   -0.50090911    -0.00091905532
    520000   0.05116466    -0.61500852     0.037816133   -0.50049491    -0.000884829  
    521000   0.053613857   -0.61775082     0.036624698   -0.50075722    -0.001560407  
    522000   0.051799596   -0.62042948     0.037297837   -0.50548238     0.0043009909 
    523000   0.049622383   -0.62160213     0.035324726   -0.51189185    -0.00065503446
    524000   0.048574584   -0.62230397     0.035728055   -0.51376104    -0.0020829549 
    525000   0.049633439   -0.62141233     0.035420192   -0.51159001     0.0018674955 
    526000   0.050946526   -0.62035047     0.035131487   -0.5088485      0.0062914274 
    527000   0.050401473   -0.62049718     0.034410116   -0.51053363     0.0015090791 
    528000   0.051388625   -0.62237433     0.033868844   -0.51147228    -0.0020792894 
    529000   0.05066813    -0.6218008      0.037780057   -0.50806758     0.0067974831 
    530000   0.050791053   -0.62118991     0.036220202   -0.50883228    -0.0024339583 
    531000   0.05318144    -0.62340434     0.036496317   -0.50718733     0.0036095784 
    532000   0.050265079   -0.62144039     0.035851984   -0.51023944     0.0010129972 
    533000   0.049694845   -0.62262526     0.035848235   -0.51228284     0.00066400548
    534000   0.051040958   -0.62300879     0.034353857   -0.51214289     0.0020772673 
    535000   0.050957899   -0.62277164     0.034423496   -0.51196061    -0.0031865649 
    536000   0.051055958   -0.62573589     0.037281449   -0.51191992     0.0011740788 
    537000   0.052377881   -0.626067       0.03522951    -0.51232136    -0.00018349567
    538000   0.051285952   -0.62430751     0.035421003   -0.51200721     0.0037007485 
    539000   0.050463011   -0.62730121     0.035166493   -0.51648903    -0.0046408615 
    540000   0.050214878   -0.62871223     0.035312944   -0.51812556     0.005508053  
    541000   0.052070469   -0.62850592     0.037109737   -0.51334087    -0.00313277   
    542000   0.050740504   -0.63271707     0.037417795   -0.51923763    -0.0018078026 
    543000   0.050645771   -0.63451137     0.036781928   -0.5218098      0.0017857344 
    544000   0.052269654   -0.63518921     0.036180558   -0.52065476    -0.00010061868
    545000   0.050979902   -0.63632339     0.035295222   -0.52460765    -0.0027950153 
    546000   0.050907664   -0.63589126     0.037701125   -0.5218779      0.0033338932 
    547000   0.050736901   -0.63807215     0.036498996   -0.5255169     -0.0048713071 
    548000   0.050322159   -0.63834005     0.033981095   -0.52892441    -0.00032812388
    549000   0.050633923   -0.63929273     0.035797876   -0.52759297     0.0042799217 
    550000   0.048698156   -0.63879437     0.037577006   -0.52821725     0.0052887103 
    551000   0.048315032   -0.63956153     0.03477537    -0.53236037    -0.00069486239
    552000   0.051433538   -0.6391396      0.034122688   -0.52791638    -0.0049265075 
    553000   0.050259095   -0.63797727     0.03515457    -0.52748269     0.0055466299 
    554000   0.051209357   -0.63777558     0.034758969   -0.52625213    -0.001261429  
    555000   0.049612991   -0.63806501     0.034586572   -0.52910696     0.0019781038 
    556000   0.05137669    -0.63818878     0.035861652   -0.52531181    -0.0044813557 
    557000   0.050461321   -0.63786013     0.036606921   -0.52561006     0.0025621532 
    558000   0.050511343   -0.63810714     0.037086215   -0.5253028      0.0035176556 
    559000   0.05008303    -0.63856427     0.034714545   -0.52877365     0.0055560467 
    560000   0.04957433    -0.63914924     0.034687103   -0.53014862     0.0036035045 
    561000   0.050577382   -0.63947626     0.035977444   -0.52768169    -0.00035847173
    562000   0.04842148    -0.6386033      0.035495455   -0.53052249    -0.00056720322
    563000   0.049757251   -0.6382873      0.036077269   -0.5276223      0.0019758718 
    564000   0.049841037   -0.64017505     0.035953613   -0.52950812    -0.0036354977 
    565000   0.050763988   -0.6387237      0.035649405   -0.52697744     0.0016041758 
    566000   0.049936193   -0.63938374     0.035908384   -0.5286194      0.0011198689 
    567000   0.050765342   -0.63995551     0.036167751   -0.52768887     0.00096901912
    568000   0.048703356   -0.63966572     0.035487988   -0.53116983     0.0012288305 
    569000   0.052610231   -0.64177796     0.035087736   -0.52782579    -0.00010793443
    570000   0.050299586   -0.64182833     0.036074651   -0.53035298     0.0020236484 
    571000   0.049820016   -0.64351152     0.035385967   -0.53344374    -0.0046718322 
    572000   0.050527385   -0.64289229     0.034472436   -0.53267768    -0.0013000985 
    573000   0.050768423   -0.64187762     0.034235805   -0.53153831     0.0039534001 
    574000   0.050572693   -0.6438188      0.036161758   -0.53184694    -0.00065892192
    575000   0.050776613   -0.64426249     0.036759768   -0.53138694     0.00014008398
    576000   0.050669777   -0.6441245      0.034632083   -0.53353679     0.0039288381 
    577000   0.049851655   -0.64651658     0.036463516   -0.53532382    -0.0017027114 
    578000   0.051373723   -0.64645521     0.034493005   -0.53495133    -0.0019851853 
    579000   0.049356818   -0.6460783      0.036087481   -0.53600336    -0.00064617476
    580000   0.049696995   -0.64562503     0.03642121    -0.53470642    -0.0017921346 
    581000   0.049575876   -0.64612083     0.033976942   -0.53782805    -0.0051719759 
    582000   0.048645243   -0.64613631     0.033412323   -0.5398032      0.0011234901 
    583000   0.049034011   -0.64706577     0.035792294   -0.53776991    -0.0041050086 
    584000   0.050847327   -0.64613253     0.036653343   -0.5332574      0.0002619386 
    585000   0.053571666   -0.64880435     0.037499576   -0.53099912    -0.0047358875 
    586000   0.051108696   -0.6478479      0.036267466   -0.53496685     0.0040839626 
    587000   0.051267208   -0.65051616     0.035895918   -0.53776904     0.0033279769 
    588000   0.050441211   -0.64983856     0.034132429   -0.54009313    -0.002951694  
    589000   0.050781028   -0.64933325     0.035134154   -0.5380767      0.002877537  
    590000   0.051015279   -0.64960823     0.036305589   -0.53682909     0.00081452744
    591000   0.049903963   -0.64944607     0.034914372   -0.53972405     0.005132298  
    592000   0.050527326   -0.65141666     0.034434395   -0.54124018    -0.0034235159 
    593000   0.05149041    -0.65223956     0.036517744   -0.53853603     0.0025532504 
    594000   0.052110254   -0.65372852     0.033056923   -0.54255665     0.00097686843
    595000   0.052143685   -0.65531383     0.037391268   -0.5397575     -0.004268039  
    596000   0.050703876   -0.65778654     0.036140955   -0.54563884     0.0038665856 
    597000   0.050771891   -0.65768155     0.035912625   -0.54566022     0.0032116178 
    598000   0.049097399   -0.65922831     0.036144151   -0.54948557     0.0054438165 
    599000   0.049862058   -0.65897375     0.035579121   -0.54864979    -0.0013584792 
    600000   0.05068349    -0.6597584      0.034347535   -0.54943468     0.0025929733 
    601000   0.050281908   -0.66032433     0.036651204   -0.54829892     0.00097838337
    602000   0.050468318   -0.66105877     0.037162393   -0.54824274     0.00092330584
    603000   0.051735725   -0.6623371      0.036250705   -0.54853288     0.0038473754 
    604000   0.04986332    -0.66239532     0.036038089   -0.5516105      0.0016646354 
    605000   0.049854545   -0.66078195     0.036247664   -0.54980071     0.0038550853 
    606000   0.051700346   -0.661026       0.034894514   -0.548631       0.0010420583 
    607000   0.050443786   -0.66302586     0.033147217   -0.55426178     0.0078795243 
    608000   0.049905587   -0.66332451     0.03542939    -0.55308504    -0.00088547624
    609000   0.050772989   -0.66131966     0.035236652   -0.54997266    -0.0077501436 
    610000   0.0509916     -0.6601134      0.032672439   -0.55100291     0.0073194151 
    611000   0.050661239   -0.66248433     0.035068402   -0.5514731      0.00061270591
    612000   0.050026974   -0.66249604     0.035149178   -0.55235482    -0.0043099431 
    613000   0.049118801   -0.66236106     0.033095684   -0.55563471     0.0054938199 
    614000   0.048831592   -0.66318588     0.033460921   -0.55652483     0.00047367563
    615000   0.049453605   -0.66469107     0.036135131   -0.55442339     0.002759907  
    616000   0.052204369   -0.66472225     0.035385887   -0.55108033    -0.0015300812 
    617000   0.050951945   -0.66538994     0.036000786   -0.55301055     0.0021896882 
    618000   0.049967479   -0.6647857      0.035913718   -0.55396912    -0.0033660386 
    619000   0.050766832   -0.66428159     0.035515391   -0.55266508     0.00040382294
    620000   0.049207084   -0.66491534     0.037093484   -0.55405884     0.0033731078 
    621000   0.049578178   -0.66462421     0.035625809   -0.55467911     0.0018819676 
    622000   0.050126563   -0.66676285     0.035408606   -0.55621291     0.0047646613 
    623000   0.048249857   -0.66713544     0.035755542   -0.5590518     -0.0074018259 
    624000   0.049410617   -0.66617295     0.035022953   -0.55708189     0.0036996403 
    625000   0.051430421   -0.66616659     0.035890307   -0.55318042     0.0079065091 
    626000   0.051498388   -0.66760826     0.036356395   -0.55405412    -0.0027653519 
    627000   0.051074543   -0.66776532     0.036981327   -0.5542216      0.002824244  
    628000   0.049541569   -0.66677849     0.037299364   -0.55521472    -0.0030635323 
    629000   0.051145163   -0.66842695     0.035229233   -0.55652947     0.0015495261 
    630000   0.04930715    -0.66796862     0.034571462   -0.55948415     0.003755381  
    631000   0.050356145   -0.66891516     0.035904625   -0.55752505     0.0069918688 
    632000   0.050926651   -0.66989272     0.036270604   -0.55728142    -0.0043694359 
    633000   0.050905685   -0.67147471     0.037960618   -0.55720483     0.0024442375 
    634000   0.049896472   -0.67132435     0.03693879    -0.55958913     2.4219533e-05
    635000   0.049679557   -0.67117617     0.034511375   -0.56219354    -0.0035312507 
    636000   0.049758934   -0.67134552     0.035578804   -0.56117647    -0.0042528699 
    637000   0.048737148   -0.67114683     0.035302698   -0.56278558    -0.00065489455
    638000   0.049266577   -0.67215273     0.035868018   -0.56243252     0.0024784362 
    639000   0.051611927   -0.6714265      0.03575356    -0.558305       0.0058584867 
    640000   0.051913445   -0.67116895     0.03460333    -0.5587457     -0.0031781873 
    641000   0.051119731   -0.67186208     0.035925379   -0.55930658    -0.0024338147 
    642000   0.048180466   -0.67019042     0.035694956   -0.56227139     0.00426329   
    643000   0.048656456   -0.67124312     0.035301649   -0.56300387    -0.00060636536
    644000   0.049062866   -0.67150538     0.036569188   -0.56138937    -0.0034103672 
    645000   0.048703848   -0.67142971     0.038854087   -0.55956699     0.0016579808 
    646000   0.051275428   -0.67146777     0.035643509   -0.55896074    -0.00069857677
    647000   0.050117789   -0.67094038     0.038932712   -0.55687949     6.7059313e-05
    648000   0.05082593    -0.6716047      0.035197873   -0.56021712     0.00014063299
    649000   0.049892877   -0.67220044     0.035343336   -0.56206608     0.0063530737 
    650000   0.050239672   -0.67237337     0.034874193   -0.56218829    -0.00050890289
    651000   0.049927342   -0.67041891     0.036823325   -0.55875288     0.0024214122 
    652000   0.049707488   -0.67159244     0.036536503   -0.56054281     0.0010947285 
    653000   0.051114199   -0.67133153     0.034403387   -0.56030631     0.0067423798 
    654000   0.050318463   -0.67107069     0.036900115   -0.55874158    -0.003094525  
    655000   0.048110739   -0.67216331     0.036562671   -0.56348109    -0.0055998083 
    656000   0.050883277   -0.67109461     0.037356175   -0.55746276     0.0021316355 
    657000   0.050424926   -0.67187486     0.035504664   -0.5607816      0.003259427  
    658000   0.050076755   -0.67136721     0.036573118   -0.55972742     0.0075316167 
    659000   0.050940556   -0.67374573     0.03801784    -0.55936635    -0.0019520889 
    660000   0.049925926   -0.67389738     0.035354506   -0.5637023     -0.0027879575 
    661000   0.05106924    -0.67394876     0.034894797   -0.56249953     0.0015160307 
    662000   0.050160076   -0.67398786     0.038627939   -0.56016835     0.0026383188 
    663000   0.051319271   -0.67610408     0.036890459   -0.56228438    -0.0036682059 
    664000   0.050887677   -0.67578985     0.036356256   -0.56315133     0.0018523898 
    665000   0.053055048   -0.67711734     0.036412956   -0.56117316    -0.0050113771 
    666000   0.048869067   -0.67510041     0.035441954   -0.56640215     0.0032566206 
    667000   0.050137165   -0.67725738     0.03608716    -0.56601299    -0.0081158296 
    668000   0.05001558    -0.67813867     0.036945247   -0.56621846     0.0022923931 
    669000   0.05085828    -0.67649361     0.037552001   -0.56270341     0.0080986855 
    670000   0.050927495   -0.67924552     0.037403872   -0.56549969    -0.0056002296 
    671000   0.049472846   -0.67904163     0.037127445   -0.56775279    -0.0051182078 
    672000   0.050168538   -0.6782282      0.035620375   -0.56740357     4.6195541e-05
    673000   0.051068941   -0.68079782     0.03414662    -0.57009721    -0.0017723978 
    674000   0.050379642   -0.68023705     0.034684861   -0.57003148     0.0049956048 
    675000   0.048730597   -0.68217412     0.035393961   -0.57373142    -0.0016474449 
    676000   0.048831866   -0.68225824     0.035894317   -0.57316338     0.0016238522 
    677000   0.04981896    -0.68283973     0.034924638   -0.57323486    -0.003654242  
    678000   0.050248815   -0.68355766     0.036372426   -0.57186064    -0.0052897694 
    679000   0.049208446   -0.68349437     0.035720234   -0.57400908     0.0058388656 
    680000   0.050719129   -0.68561346     0.035850332   -0.57373352     0.0057940972 
    681000   0.050227124   -0.68662089     0.037992342   -0.57333647    -0.011089023  
    682000   0.049426792   -0.68473086     0.036561805   -0.5740767     -9.5069546e-05
    683000   0.050328477   -0.68636676     0.034036914   -0.57688584     0.00081005055
    684000   0.048994847   -0.68522916     0.035388348   -0.57639595    -0.0012956587 
    685000   0.048338823   -0.68546091     0.03547008    -0.57752938     0.000844855  
    686000   0.049731125   -0.68460673     0.035102936   -0.57495523     0.0014939584 
    687000   0.052313208   -0.68770583     0.036308332   -0.57297831    -0.00040223336
    688000   0.050329038   -0.68544763     0.036487111   -0.57351567    -0.00068351404
    689000   0.050453928   -0.68689483     0.035159629   -0.57610313     0.003008702  
    690000   0.050197919   -0.68604835     0.036469291   -0.57433076    -0.00070117673
    691000   0.050417788   -0.68584204     0.03542311    -0.57484104     0.0058838024 
    692000   0.04848856    -0.68576392     0.035793664   -0.57728434     0.0020243424 
    693000   0.049393854   -0.68621218     0.03670887    -0.57546033     0.0005770791 
    694000   0.050750715   -0.68629102     0.036775399   -0.57343866    -0.0075883058 
    695000   0.05174309    -0.68790015     0.036257329   -0.57407826     0.0004786959 
    696000   0.049385324   -0.68733733     0.035692749   -0.57761439    -0.001040409  
    697000   0.049762059   -0.68677435     0.034955913   -0.5772235      0.00068286137
    698000   0.049951783   -0.68788        0.036081493   -0.57691917     0.0027278384 
    699000   0.047552244   -0.6895517      0.036954938   -0.58131441     0.0041568212 
    700000   0.050306633   -0.6939424      0.037978996   -0.58055213    -0.0054399743 
    701000   0.050704461   -0.69379543     0.036619867   -0.58116795     0.0016677439 
    702000   0.052204146   -0.69364074     0.039156054   -0.57622898     0.0079533156 
    703000   0.049816228   -0.69404286     0.037421631   -0.58194509    -0.0052809326 
    704000   0.051912733   -0.69618038     0.0378081     -0.58055342    -0.0059717196 
    705000   0.049799628   -0.69564194     0.037745528   -0.58324516     0.0022450571 
    706000   0.051799182   -0.69494534     0.036135537   -0.58116116     0.00064148842
    707000   0.049981266   -0.69585146     0.036454129   -0.5844738     -0.0017109403 
    708000   0.04897856    -0.69628796     0.035533374   -0.58733414    -0.0021455951 
    709000   0.052845978   -0.69702432     0.034871363   -0.58293513    -0.0024459535 
    710000   0.050504504   -0.69740505     0.037809813   -0.58388735    -0.0067513443 
    711000   0.052693324   -0.69613299     0.035043254   -0.58210074     0.0039486903 
    712000   0.049569986   -0.69812853     0.03772516    -0.58609636    -0.0017316696 
    713000   0.04876369    -0.69610065     0.035928094   -0.58707421     0.0044711319 
    714000   0.050414927   -0.69839711     0.036379862   -0.58644365    -0.0042257124 
    715000   0.049083491   -0.69734632     0.036765011   -0.58700358     0.0012176984 
    716000   0.050255681   -0.69805393     0.037107403   -0.58561164     0.0021109095 
    717000   0.050082149   -0.69813344     0.038401043   -0.58465764     0.0018793077 
    718000   0.050784378   -0.69861432     0.036331017   -0.58615588     0.0012248198 
    719000   0.050525168   -0.70091233     0.036371221   -0.58880225    -0.0036850471 
    720000   0.049128732   -0.70006087     0.035476699   -0.59093861     0.0043169793 
    721000   0.048928025   -0.70041845     0.037883971   -0.5891898     -0.00091721121
    722000   0.051704294   -0.70084811     0.036402719   -0.58693899     0.0030624438 
    723000   0.05098347    -0.70138512     0.036918076   -0.58804118     0.0028984113 
    724000   0.05063538    -0.70109702     0.036161358   -0.5890316      0.0031108845 
    725000   0.051936614   -0.70087866     0.034232886   -0.58879111    -0.0014307153 
    726000   0.049916139   -0.70209015     0.036357869   -0.59090638    -0.00021165899
    727000   0.050604482   -0.70382107     0.037288869   -0.59067445    -0.0012428032 
    728000   0.049576256   -0.70156392     0.036149919   -0.5910976      0.01043797   
    729000   0.050950971   -0.70338002     0.035646246   -0.59135663     0.0029075259 
    730000   0.050043336   -0.70401826     0.038043926   -0.59095776    -0.0035671617 
    731000   0.051341843   -0.70367573     0.036928725   -0.58978393    -0.0069047093 
    732000   0.051716895   -0.70512822     0.038091651   -0.58951127     0.0058689871 
    733000   0.050779392   -0.70350297     0.037820927   -0.5895621     -0.0015539307 
    734000   0.051483605   -0.7049465      0.035324839   -0.59244607    -0.0052321683 
    735000   0.050845553   -0.70549309     0.037859609   -0.59141436     0.0022440387 
    736000   0.050211145   -0.70639928     0.036039265   -0.59509189    -0.0028474041 
    737000   0.050166834   -0.70688298     0.033689789   -0.59799149     0.0011768141 
    738000   0.049934176   -0.70682979     0.036204832   -0.59577202    -0.0010089563 
    739000   0.049588447   -0.70892358     0.035136345   -0.59945255     0.001626989  
    740000   0.049800947   -0.709652       0.036569965   -0.59842881    -0.0089465667 
    741000   0.04936114    -0.70967168     0.036258818   -0.59941892    -0.0027557632 
    742000   0.051074525   -0.70902766     0.034308443   -0.59815686     0.0011999904 
[...]
   3793000   0.048340299   -0.82693835     0.04886783    -0.70560685     0.0074656163 
   3794000   0.050243241   -0.8263798      0.047005696   -0.70405787     0.0012400591 
   3795000   0.049475359   -0.82570574     0.048478376   -0.7030622      0.0028511382 
   3796000   0.050829598   -0.82821127     0.046570769   -0.7054453      0.0023524858 
   3797000   0.050028427   -0.82798506     0.047498494   -0.70549234    -0.0081129244 
   3798000   0.052231578   -0.82678807     0.049064921   -0.69942633     0.00016593047
   3799000   0.049950653   -0.82572136     0.047312876   -0.70353085     0.0039114575 
   3800000   0.05111672    -0.82497123     0.04756273    -0.70078289    -0.0035538915 
   3801000   0.050032734   -0.82567709     0.046589896   -0.70408651    -0.001773944  
   3802000   0.048677849   -0.82636834     0.044636434   -0.70876224    -0.002865093  
   3803000   0.048604139   -0.82621141     0.048178559   -0.70517368     0.0025860979 
   3804000   0.049790274   -0.8268261      0.046258873   -0.70593       -0.0043260798 
   3805000   0.048202591   -0.82710286     0.047568247   -0.70727738    -0.0047155529 
   3806000   0.050295943   -0.82509877     0.044991106   -0.70471243     0.0061841699 
   3807000   0.049608296   -0.82558294     0.045833155   -0.70538535    -0.001289038  
   3808000   0.05016957    -0.82512277     0.04706702    -0.70284995     0.0022235049 
   3809000   0.049684594   -0.82566804     0.047104596   -0.70408464     0.004601452  
   3810000   0.050900912   -0.82868676     0.044961362   -0.70742329    -0.0069246794 
   3811000   0.05072833    -0.82708707     0.045908846   -0.70513482    -0.0017786289 
   3812000   0.050557622   -0.8255617      0.046193049   -0.70358115     0.0067634878 
   3813000   0.049864974   -0.82702685     0.048205272   -0.70407238     0.00064212079
   3814000   0.050147562   -0.82633927     0.047096231   -0.70407023    -0.0071722786 
   3815000   0.05251421    -0.82638907     0.045230989   -0.70243759    -0.00052828899
   3816000   0.051025359   -0.82708502     0.045663377   -0.70493299    -0.0057244262 
   3817000   0.049220851   -0.8282595      0.048448019   -0.70602784    -0.0033094649 
   3818000   0.049241629   -0.82628975     0.048080066   -0.70439489     0.0029527405 
   3819000   0.049576236   -0.82668882     0.048170502   -0.70420195    -0.00010314173
   3820000   0.048537343   -0.82536462     0.046820316   -0.70578526     0.0042457231 
   3821000   0.050380037   -0.82779621     0.045790318   -0.70648459     0.0027919651 
   3822000   0.051242578   -0.82678343     0.046000161   -0.70396899    -0.011714486  
   3823000   0.04958572    -0.82471015     0.045582191   -0.70479736     0.0029555091 
   3824000   0.050340629   -0.8256323      0.046671755   -0.70349832     0.0026091335 
   3825000   0.050786311   -0.82798636     0.047767003   -0.70408904     0.0030652411 
   3826000   0.049795142   -0.82627351     0.049180533   -0.70244845    -0.0025689768 
   3827000   0.049114128   -0.82594236     0.045984987   -0.70633371     0.0044673588 
   3828000   0.050439663   -0.82606056     0.047662342   -0.70278753    -0.0020448284 
   3829000   0.051595923   -0.82560568     0.045153189   -0.70310853     0.0038429504 
   3830000   0.051207343   -0.82722933     0.047785143   -0.70268273    -0.0013774032 
   3831000   0.05037165    -0.82643213     0.045179519   -0.70574388    -0.0034996229 
   3832000   0.050069044   -0.82618054     0.046432747   -0.70469268     0.0046428867 
   3833000   0.04999987    -0.82461797     0.046241602   -0.70342495     0.0040127994 
   3834000   0.050169584   -0.82767052     0.048205868   -0.70425883    -0.0015339026 
   3835000   0.049726167   -0.82625153     0.045554145   -0.70615625     0.0032400207 
   3836000   0.049343478   -0.82703193     0.046941756   -0.7061227      0.0047426744 
   3837000   0.04975535    -0.82660219     0.046826437   -0.70519088    -0.0038684349 
   3838000   0.05078794    -0.82652353     0.04552138    -0.70486939    -0.00038826047
   3839000   0.048765895   -0.82695162     0.04786019    -0.70598978    -0.0025245741 
   3840000   0.048897861   -0.82656982     0.047226849   -0.7060435     -0.0057807632 
   3841000   0.050465313   -0.82640475     0.047462588   -0.70329303    -0.00069329263
   3842000   0.05106383    -0.8252055      0.045961311   -0.70269786     0.0049318437 
   3843000   0.049848994   -0.82652369     0.04376247    -0.70803597    -0.0030527093 
   3844000   0.048380274   -0.82700666     0.04742193    -0.70706114    -0.0028994355 
   3845000   0.047867485   -0.8259072      0.046407822   -0.70774448     0.0032459961 
   3846000   0.05023207    -0.82625533     0.046333051   -0.70462279    -2.7256548e-05
   3847000   0.05121683    -0.82780533     0.047348365   -0.70368128    -0.013474637  
   3848000   0.050684124   -0.82620348     0.04642562    -0.70380073    -0.0064536862 
   3849000   0.051644676   -0.8269196      0.048017059   -0.7014855     -0.00024198448
   3850000   0.050508211   -0.82544703     0.046001666   -0.70373193     0.0066264017 
   3851000   0.049345552   -0.82666057     0.048017354   -0.70467265    -0.00083205393
   3852000   0.048936597   -0.82737478     0.048962025   -0.70505522     0.003187133  
   3853000   0.04935159    -0.82878948     0.049747131   -0.70506273    -0.0048669885 
   3854000   0.05039459    -0.82769775     0.048097088   -0.70405754    -0.0068602365 
   3855000   0.049691597   -0.82624296     0.048060853   -0.7036928     -3.6680534e-05
   3856000   0.04983086    -0.82629186     0.046621174   -0.70497263     0.00016774256
   3857000   0.05070582    -0.82543422     0.045755496   -0.70366907    -0.0011293114 
   3858000   0.050126732   -0.82604182     0.046250572   -0.70464966     0.0076817917 
   3859000   0.047722816   -0.82628601     0.047690855   -0.70705711     0.0044429677 
   3860000   0.048322182   -0.82634866     0.04677493    -0.70713722    -0.00017872235
   3861000   0.048797161   -0.82548252     0.044964896   -0.70736911     0.0029792185 
   3862000   0.048729541   -0.8271512      0.046520104   -0.70758394    -0.003384227  
   3863000   0.051007745   -0.82667781     0.04614819    -0.70406736    -0.0072256149 
   3864000   0.051354751   -0.82660331     0.046481329   -0.70313955     0.0020135912 
   3865000   0.048585476   -0.82672685     0.047990743   -0.70590491     0.0017728862 
   3866000   0.049116424   -0.82666347     0.046234154   -0.70680221     0.0010678861 
   3867000   0.050981245   -0.82765032     0.04782718    -0.70340061    -0.0047254846 
   3868000   0.05064082    -0.82547574     0.045517418   -0.7040461      0.0034982313 
   3869000   0.050352131   -0.8258556      0.047467613   -0.70290852    -0.0040164961 
   3870000   0.048936245   -0.82644341     0.045064428   -0.70802197     0.0020523872 
   3871000   0.04850703    -0.82645168     0.04481228    -0.7089258     -0.0064368635 
   3872000   0.049425078   -0.82866676     0.046133712   -0.70844327    -0.0038331059 
   3873000   0.052082185   -0.82758264     0.046470563   -0.7030392     -0.0055415471 
   3874000   0.049395786   -0.82578176     0.04752932    -0.70420656    -0.00094694772
   3875000   0.049071465   -0.82712376     0.04580998    -0.70775407    -0.00094890905
   3876000   0.047273823   -0.8267097      0.044606734   -0.71123798    -0.00014076259
   3877000   0.050596878   -0.82598603     0.043632084   -0.70650759    -0.001957741  
   3878000   0.050989545   -0.82656485     0.045569802   -0.70456007     0.0052189004 
   3879000   0.049027494   -0.82680914     0.046893713   -0.70642163    -0.0057969288 
   3880000   0.048796543   -0.82719681     0.048342855   -0.70570637     0.0044366565 
   3881000   0.049513666   -0.82640448     0.046019584   -0.70616231    -0.0058483516 
   3882000   0.050594953   -0.82606913     0.045987893   -0.70423777    -0.0014581189 
   3883000   0.049306048   -0.82798921     0.045188236   -0.70888961    -0.0063859535 
   3884000   0.048983749   -0.82524017     0.048158289   -0.70365366     0.0090662577 
   3885000   0.051121736   -0.8270081      0.048197677   -0.7021773      0.0097832566 
   3886000   0.049736518   -0.82638396     0.046187056   -0.70564026    -0.003777332  
   3887000   0.047778665   -0.82700978     0.047018557   -0.70836946    -0.003346276  
   3888000   0.049505441   -0.82737468     0.047018513   -0.70614592    -0.0028488043 
   3889000   0.050662464   -0.82629982     0.047801354   -0.7025538     -0.0028103474 
   3890000   0.049941198   -0.82596463     0.046329407   -0.70477175    -0.00010941579
   3891000   0.049975398   -0.82554579     0.046111663   -0.70451939    -0.0019075107 
   3892000   0.050057317   -0.8254763      0.045248364   -0.7051904      0.0034504243 
   3893000   0.050050029   -0.82490045     0.045717603   -0.70415624     0.0070841107 
   3894000   0.050012017   -0.82581581     0.048609098   -0.70223708    -0.0052607247 
   3895000   0.052710871   -0.82765586     0.048131477   -0.70050908    -0.0048174536 
   3896000   0.051045949   -0.82685513     0.045807015   -0.70452859    -0.0047377587 
   3897000   0.049784136   -0.82615334     0.048615527   -0.70290978    -0.0023855284 
   3898000   0.051033774   -0.82560252     0.049515984   -0.69958526    -0.0020548077 
   3899000   0.05120188    -0.82462275     0.046430576   -0.70143891     0.0063324904 
   3900000   0.049221638   -0.82674743     0.045942521   -0.70702008    -0.0042250562 
   3901000   0.049062206   -0.82662673     0.046050832   -0.70703007    -0.00019222572
   3902000   0.05227027    -0.82674369     0.046733947   -0.70165492    -0.0075463646 
   3903000   0.050166755   -0.82752728     0.04687721    -0.70544848    -0.0052612499 
   3904000   0.049109927   -0.82560098     0.04619807    -0.70578555     0.0039219031 
   3905000   0.049458277   -0.82642341     0.047022673   -0.70526119    -0.00064866058
   3906000   0.049101011   -0.82679824     0.047800834   -0.7053934      0.0023805066 
   3907000   0.050572299   -0.82493723     0.046804338   -0.70232339     0.0094674864 
   3908000   0.050128248   -0.82566229     0.046474012   -0.70404442    -0.003977061  
   3909000   0.048653131   -0.82444715     0.04818657    -0.70332797    -0.00025411147
   3910000   0.052212614   -0.82610821     0.045644847   -0.70219497    -0.00024705137
   3911000   0.048976901   -0.82665561     0.047681765   -0.70555589    -0.0010563659 
   3912000   0.050371426   -0.82429006     0.044381539   -0.70440013     0.013501282  
   3913000   0.050489071   -0.82705416     0.047529305   -0.70384011     0.0020528292 
   3914000   0.050248567   -0.82475083     0.047144558   -0.70228205     0.0016422364 
   3915000   0.051125575   -0.82600891     0.046296872   -0.70307315     0.0024048929 
   3916000   0.048413397   -0.82875846     0.049322744   -0.70686247    -0.014408224  
   3917000   0.050136267   -0.82650644     0.047997146   -0.70335341    -0.0086368129 
   3918000   0.04894921    -0.82706513     0.046472286   -0.7072164     -0.010029353  
   3919000   0.049397589   -0.82746864     0.047808228   -0.70561183    -0.0016586128 
   3920000   0.048210846   -0.82644127     0.046620489   -0.70755117     0.0026136557 
   3921000   0.051179161   -0.82598878     0.045229932   -0.70403964     0.0011146528 
   3922000   0.050226439   -0.82718823     0.046251763   -0.70564541    -0.0069323057 
   3923000   0.050554531   -0.82777108     0.049495455   -0.70249275    -0.0050692086 
   3924000   0.048698035   -0.82597146     0.046296427   -0.70667511    -0.0028667365 
   3925000   0.050656535   -0.82693658     0.046299039   -0.70470176    -0.0071618009 
   3926000   0.051789827   -0.82511749     0.04750349    -0.69997938     0.0041611593 
   3927000   0.051497451   -0.8275048      0.046414474   -0.70389398    -0.0039141206 
   3928000   0.049956051   -0.82615331     0.046323209   -0.70494437    -0.0020803314 
   3929000   0.05013699    -0.82627877     0.046424121   -0.70469768     0.0020157472 
   3930000   0.049206877   -0.82747556     0.047976769   -0.7057361     -0.0095072822 
   3931000   0.050741008   -0.82719791     0.049607841   -0.70152766    -0.011441643  
   3932000   0.049899364   -0.8268218      0.050325429   -0.70169562    -0.00072288055
   3933000   0.051345938   -0.82664132     0.04944757    -0.70022454    -0.0029902136 
   3934000   0.050340525   -0.82682908     0.045548766   -0.70581824     0.0038094219 
   3935000   0.048754157   -0.82645805     0.046454783   -0.70691922    -0.0043601872 
   3936000   0.050232944   -0.82604727     0.044167131   -0.70657933     0.0059583184 
   3937000   0.050666979   -0.82596639     0.047708121   -0.70230684    -0.0053556521 
   3938000   0.049147419   -0.82541403     0.046441373   -0.70529909    -0.0040771081 
   3939000   0.049194675   -0.82579753     0.045792022   -0.7062611      0.0011647668 
   3940000   0.048569038   -0.82462568     0.047264596   -0.70455453    -0.0035576488 
   3941000   0.049794273   -0.82644877     0.046658104   -0.70514745    -0.012055082  
   3942000   0.049650399   -0.82834424     0.046701756   -0.70721494    -0.0074055789 
   3943000   0.050671239   -0.82817557     0.049762984   -0.70245477    -0.006157426  
   3944000   0.049300015   -0.82671112     0.047397553   -0.70541125    -0.0073975502 
   3945000   0.048445836   -0.82615086     0.04548318    -0.7080458      0.0024586784 
   3946000   0.0485214     -0.82780642     0.049060178   -0.7060111     -0.0031174531 
   3947000   0.048549419   -0.82848815     0.049635573   -0.70607543    -0.0096988596 
   3948000   0.051335692   -0.82703207     0.047010786   -0.70306742     0.0022139032 
   3949000   0.049869868   -0.82694016     0.045329676   -0.70685394    -0.0077840784 
   3950000   0.05139642    -0.82672819     0.045979352   -0.70370394    -0.0084045123 
   3951000   0.049590676   -0.82607093     0.046274573   -0.70545834     0.0057380769 
   3952000   0.051272266   -0.82553159     0.046107684   -0.70256513     0.00095011347
   3953000   0.049659958   -0.82743848     0.046752997   -0.70624361    -0.0049647212 
   3954000   0.05028458    -0.82752559     0.045916403   -0.70623098    -0.0016958187 
   3955000   0.05072611    -0.82594664     0.048155049   -0.70175152     0.0045548234 
   3956000   0.051423354   -0.82528708     0.045584367   -0.70261745     0.013053948  
   3957000   0.050476564   -0.82683482     0.04667517    -0.70449366    -0.00108231   
   3958000   0.049622366   -0.82751006     0.045707894   -0.70741664    -0.0019410343 
   3959000   0.050240596   -0.82760075     0.045830478   -0.706458      -0.0034723976 
   3960000   0.047787674   -0.82502204     0.046220274   -0.7071665      0.0015542703 
   3961000   0.051378769   -0.82621057     0.047529722   -0.70166242    -0.0022734461 
   3962000   0.051274264   -0.82584086     0.047594096   -0.70138499     0.0023914976 
   3963000   0.049825216   -0.82707374     0.045646752   -0.70673738    -0.0068287891 
   3964000   0.04979689    -0.82604439     0.043961824   -0.70743542    -0.00089329379
   3965000   0.051064843   -0.82791049     0.046793728   -0.70456892    -0.0034329077 
   3966000   0.051504892   -0.82913236     0.048071918   -0.70385295    -0.0045607214 
   3967000   0.051036734   -0.82685827     0.046941592   -0.70341097     0.0015225348 
   3968000   0.050421818   -0.82624357     0.04698477    -0.70367487    -0.00489533   
   3969000   0.049625476   -0.82569863     0.046723696   -0.70458475     1.0665442e-06
   3970000   0.049010177   -0.82529255     0.04820908    -0.70361564     0.0049684299 
   3971000   0.050171718   -0.82503672     0.045225521   -0.70460218     0.0036345934 
   3972000   0.050523274   -0.82661201     0.046803811   -0.70407218    -0.0045285876 
   3973000   0.052210416   -0.8269921      0.045218076   -0.70350893    -0.0033800539 
   3974000   0.049225369   -0.82679279     0.047921203   -0.70508117    -0.001747826  
   3975000   0.050233808   -0.82637671     0.046776501   -0.70429811    -0.0065264685 
   3976000   0.049162039   -0.8267491      0.047980132   -0.70507348    -0.0054347403 
   3977000   0.049023066   -0.82526088     0.047722883   -0.70405084     0.0042053886 
   3978000   0.049033703   -0.82726643     0.047290268   -0.70647306    -0.00010926032
   3979000   0.050279809   -0.82595315     0.044302544   -0.70627955     0.0030216158 
   3980000   0.049107319   -0.82718028     0.04600441    -0.70756242     0.00079591069
   3981000   0.049929777   -0.82764756     0.046028874   -0.70677233    -0.00041158781
   3982000   0.049072758   -0.82599843     0.046021762   -0.70641502     0.0011815311 
   3983000   0.050236272   -0.82706843     0.046495376   -0.70526726    -0.0012375881 
   3984000   0.048470497   -0.82722297     0.045850619   -0.70871352     0.0010652599 
   3985000   0.05117038    -0.82769903     0.046408727   -0.70458425    -0.00081602221
   3986000   0.049989595   -0.82648035     0.045794677   -0.70574966     0.0040163961 
   3987000   0.049426998   -0.82669057     0.045246474   -0.70735143     0.001379044  
   3988000   0.050953451   -0.82722274     0.045026465   -0.70581541    -0.0051308085 
   3989000   0.049921291   -0.82710999     0.046421855   -0.70585451    -0.0055120364 
   3990000   0.051667955   -0.82514167     0.046137882   -0.70155186     0.0044541251 
   3991000   0.050838495   -0.82459506     0.045617157   -0.70276936    -0.0053014132 
   3992000   0.052474193   -0.82685182     0.045937099   -0.70225421    -0.0019260761 
   3993000   0.050289754   -0.82720855     0.0465729     -0.70524969    -0.0017649121 
   3994000   0.049224008   -0.82633055     0.045490509   -0.70705166     0.0030466237 
   3995000   0.050923455   -0.8267188      0.047031576   -0.70335132    -0.0069155328 
   3996000   0.048755293   -0.82662605     0.047174507   -0.70636579    -0.0066223862 
   3997000   0.049016931   -0.82595797     0.04489464    -0.70758536     0.00013149159
   3998000   0.051350605   -0.82662434     0.047006582   -0.70264155     0.00058405641
   3999000   0.050241574   -0.82489363     0.046256044   -0.70332384     0.0060989193 
   4000000   0.050391213   -0.82639156     0.044832673   -0.70602084    -0.00049544631
Loop time of 1133.29 on 8 procs for 3500000 steps with 1550 atoms

Performance: 266832.621 tau/day, 3088.341 timesteps/s, 4.787 Matom-step/s
92.6% CPU use with 8 MPI tasks x 1 OpenMP threads

MPI task timing breakdown:
Section |  min time  |  avg time  |  max time  |%varavg| %total
---------------------------------------------------------------
Pair    | 130.26     | 187.52     | 286.04     | 323.0 | 16.55
Bond    | 29.451     | 38.391     | 49.714     |  93.9 |  3.39
Neigh   | 0.60053    | 0.60151    | 0.60229    |   0.1 |  0.05
Comm    | 83.213     | 192.47     | 259.98     | 361.0 | 16.98
Output  | 9.1733     | 9.3299     | 9.4752     |   3.4 |  0.82
Modify  | 692.7      | 694.98     | 697.21     |   5.8 | 61.32
Other   |            | 10         |            |       |  0.88

Nlocal:         193.75 ave         345 max         103 min
Histogram: 1 1 0 5 0 0 0 0 0 1
Nghost:         710.75 ave         808 max         655 min
Histogram: 2 1 2 0 1 0 1 0 0 1
Neighs:              0 ave           0 max           0 min
Histogram: 8 0 0 0 0 0 0 0 0 0
FullNghs:      5126.25 ave       11248 max        2189 min
Histogram: 1 1 4 0 1 0 0 0 0 1

Total # of neighbors = 41010
Ave neighs/atom = 26.458065
Ave special neighs/atom = 2.1612903
Neighbor list builds = 1458
Dangerous builds = 0

# Write data for deformation

write_restart ${Dir}/${file6_name}
write_restart /home/franvt/GitRepos/molDynLammps/polymericGels/gel-bonds-1/data/0.050.30.05500-2026-01-26-101526/${file6_name}
write_restart /home/franvt/GitRepos/molDynLammps/polymericGels/gel-bonds-1/data/0.050.30.05500-2026-01-26-101526/data.hydrogel
System init for write_restart ...
WARNING: Using a manybody potential with bonds/angles/dihedrals and special_bond exclusions (src/pair.cpp:250)
Hybrid pair style last /omp style table/omp
Last active /omp style is angle_style harmonic/omp
Total wall time: 0:21:13
