LAMMPS (22 Jul 2025)
OMP_NUM_THREADS environment is not set. Defaulting to 1 thread.
  using 1 OpenMP thread(s) per MPI task
package omp 0
using multi-threaded neighbor list subroutines
# Input Script of lammps for assembly simulation of polimeric network.
# Main code is based on: https://github.com/PipeB62/Hydrogel-Simulation
# Patchy particles are with bond style.

# Felipe Benavides modified by Fco. Vazquez

# Initialization
units lj
dimension 3
boundary p p p

# Styles of atoms and that stuff
atom_style full
bond_style harmonic
angle_style harmonic
pair_style hybrid/overlay zero 0.0 lj/cut/omp 1.12 table/omp linear 5000000 threebody/table

newton on

# Create simulaiton box
region simulation_box block -$L $L -$L $L -$L $L
region simulation_box block -9.796741 $L -$L $L -$L $L
region simulation_box block -9.796741 9.796741 -$L $L -$L $L
region simulation_box block -9.796741 9.796741 -9.796741 $L -$L $L
region simulation_box block -9.796741 9.796741 -9.796741 9.796741 -$L $L
region simulation_box block -9.796741 9.796741 -9.796741 9.796741 -9.796741 $L
region simulation_box block -9.796741 9.796741 -9.796741 9.796741 -9.796741 9.796741
# N-atom-types region-ID keyword value Is necesesary the extra/special/per/atom (# of special neighbors per atom)
create_box 4 simulation_box     bond/types 1     angle/types 2     extra/bond/per/atom 10     extra/angle/per/atom 6     extra/special/per/atom 10
Created orthogonal box = (-9.796741 -9.796741 -9.796741) to (9.796741 9.796741 9.796741)
  2 by 2 by 2 MPI processor grid

# Atom types
mass 1 1.0      # CL
mass 2 1.0      # MO
mass 3 1.0      # PA
mass 4 1.0      # PB

# Coefficients
include potential.in
# Script with the pair-wise interaction and bonds between particles

bond_coeff 1 100.0 0.45
angle_coeff 1 100.0 180
angle_coeff 2 100.0 109.4712
pair_coeff 1 3 zero 0.5
pair_coeff 1 4 zero 0.5
pair_coeff 2 3 zero 0.5
pair_coeff 2 4 zero 0.5
pair_coeff 3 3 zero 0.5
pair_coeff 1 1 lj/cut/omp 1.0 1.0 1.12
pair_coeff 2 2 lj/cut/omp 1.0 1.0 1.12
pair_coeff 1 2 lj/cut/omp 1.0 1.0 1.12
pair_coeff 3 4 table/omp sysFiles/pachTab.table POT 0.6 # sw/omp sysFiles/patchyPot.sw NULL NULL PA PB
Reading pair table potential file sysFiles/pachTab.table with DATE: 2024-07-08
WARNING: 7 of 1000000 force values in table POT are inconsistent with -dE/dr.
WARNING:  Should only be flagged at inflection points (src/pair_table.cpp:469)
pair_coeff 4 4 table/omp sysFiles/pachTab.table POT 0.6 # sw/omp sysFiles/patchyPot.sw NULL NULL PA PB
Reading pair table potential file sysFiles/pachTab.table with DATE: 2024-07-08
WARNING: 7 of 1000000 force values in table POT are inconsistent with -dE/dr.
WARNING:  Should only be flagged at inflection points (src/pair_table.cpp:469)
pair_coeff * * threebody/table swapMech.3b NULL NULL PA PB
pair_modify pair lj/cut/omp shift yes


# Molecules
include molecules.in
# Script with all molecule information and create groups for computes

# Read the molecule information
molecule CL sysFiles/molecule.patchy.CL
Read molecule template CL:
# Patchy Cross-Linker
  1 molecules
  0 fragments
  0 bodies
  5 atoms with max type 3
  4 bonds with max type 1
  6 angles with max type 2
  0 dihedrals with max type 0
  0 impropers with max type 0
molecule MO sysFiles/molecule.patchy.MO
Read molecule template MO:
# Patchy Monomer
  1 molecules
  0 fragments
  0 bodies
  3 atoms with max type 4
  2 bonds with max type 1
  1 angles with max type 1
  0 dihedrals with max type 0
  0 impropers with max type 0

# Introduce the molecules
# ID style args keyword arg
region spawn_box block -$L $L -$L $L -$L $L
region spawn_box block -9.796741 $L -$L $L -$L $L
region spawn_box block -9.796741 9.796741 -$L $L -$L $L
region spawn_box block -9.796741 9.796741 -9.796741 $L -$L $L
region spawn_box block -9.796741 9.796741 -9.796741 9.796741 -$L $L
region spawn_box block -9.796741 9.796741 -9.796741 9.796741 -9.796741 $L
region spawn_box block -9.796741 9.796741 -9.796741 9.796741 -9.796741 9.796741

# create_atoms type style args keyword values
# style_random: N seed region-ID
# keyword_mol: template-ID seed
# keyword_overlap: overlap value = only insert if at least this distance from all existing atoms
# keyword_maxtry: maxtry value = number of attempts to insert a particle before failure
create_atoms 0 random ${NCL} ${seed1} spawn_box mol CL ${seed1} overlap 1.0 maxtry 5000 #xls
create_atoms 0 random 25 ${seed1} spawn_box mol CL ${seed1} overlap 1.0 maxtry 5000 
create_atoms 0 random 25 3234 spawn_box mol CL ${seed1} overlap 1.0 maxtry 5000 
create_atoms 0 random 25 3234 spawn_box mol CL 3234 overlap 1.0 maxtry 5000 
Created 125 atoms
  using lattice units in orthogonal box = (-9.796741 -9.796741 -9.796741) to (9.796741 9.796741 9.796741)
  create_atoms CPU = 0.009 seconds
create_atoms 0 random ${NMO} ${seed2} spawn_box mol MO ${seed2} overlap 1.0 maxtry 5000 #mon
create_atoms 0 random 475 ${seed2} spawn_box mol MO ${seed2} overlap 1.0 maxtry 5000 
create_atoms 0 random 475 6321 spawn_box mol MO ${seed2} overlap 1.0 maxtry 5000 
create_atoms 0 random 475 6321 spawn_box mol MO 6321 overlap 1.0 maxtry 5000 
Created 1425 atoms
  using lattice units in orthogonal box = (-9.796741 -9.796741 -9.796741) to (9.796741 9.796741 9.796741)
  create_atoms CPU = 0.008 seconds

# Create patchy particles
group CrossLinker type 1 3
125 atoms in group CrossLinker
group Monomer type 2 4
1425 atoms in group Monomer
group Patches type 3 4
1050 atoms in group Patches
group CL type 1
25 atoms in group CL
group MO type 2
475 atoms in group MO
group PA type 3
100 atoms in group PA
group CM type 1 2
500 atoms in group CM

# Neighbor list
neighbor 1.8 bin # extra-distance style
#neigh_modify delay 0 every 1 check no
#neigh_modify exclude molecule/intra CrossLinker
#neigh_modify exclude molecule/intra Monomer

# COMPUTES

# Compute global kinetic and potential energy and temperature
compute t all temp
compute p all pressure t
compute ep all pe
compute ek all ke
variable eT equal etotal
variable eB equal ebond
variable eA equal eangle
variable eM equal emol
variable ec equal ecouple
variable eC equal econserve

# Potencial energy per pair-wise interaction
compute wcaPair all pair lj/cut/omp epair
compute patchPair all pair table/omp epair
compute swapPair all pair threebody/table epair

# Compute the pressure
compute press all pressure t ke virial
compute pressVirial all pressure t virial
compute pressVirialMod all pressure t pair bond angle

# Computes for the stress
compute cstress all stress/atom t ke pair bond angle
compute cstressVirial all stress/atom t virial
compute cstressVirialMod all stress/atom t pair bond angle
compute stress all reduce sum c_cstress[*]
compute stressVirial all reduce sum c_cstressVirial[*]
compute stressVirialMod all reduce sum c_cstressVirialMod[*]

# Displacement of the central particles
compute disp CM displace/atom
compute redDisp CM reduce ave c_disp[*] # All, because yes

# Get the number of central particles per cluster
compute clusters all aggregate/atom 0.6                             # Create the clusters
compute Nclpart CM chunk/atom c_clusters compress yes discard yes   # Get the number of clusters
compute clsize CM property/chunk Nclpart count                      # Counts the atoms in each chunk
compute idcl CM property/chunk Nclpart id                           # Get the ids of the clusters

# DUMPS and FIXES

thermo ${NsaveStress}
thermo 1000

# Save global energies and temperature
fix Energy all ave/time 1 ${Nsave} ${Nsave} c_t c_wcaPair c_patchPair c_swapPair c_ep c_ek v_eT v_ec v_eC c_p v_eB v_eA v_eM c_redDisp[*] file ${Dir}/${file1_name}
fix Energy all ave/time 1 1000 ${Nsave} c_t c_wcaPair c_patchPair c_swapPair c_ep c_ek v_eT v_ec v_eC c_p v_eB v_eA v_eM c_redDisp[*] file ${Dir}/${file1_name}
fix Energy all ave/time 1 1000 1000 c_t c_wcaPair c_patchPair c_swapPair c_ep c_ek v_eT v_ec v_eC c_p v_eB v_eA v_eM c_redDisp[*] file ${Dir}/${file1_name}
fix Energy all ave/time 1 1000 1000 c_t c_wcaPair c_patchPair c_swapPair c_ep c_ek v_eT v_ec v_eC c_p v_eB v_eA v_eM c_redDisp[*] file /home/franvt/GitRepos/molDynLammps/polymericGels/gel-bonds-1/data/0.050.30.05500-2026-01-21-161335/${file1_name}
fix Energy all ave/time 1 1000 1000 c_t c_wcaPair c_patchPair c_swapPair c_ep c_ek v_eT v_ec v_eC c_p v_eB v_eA v_eM c_redDisp[*] file /home/franvt/GitRepos/molDynLammps/polymericGels/gel-bonds-1/data/0.050.30.05500-2026-01-21-161335/system_assembly.fixf

# Save Pressure and Stress tensor
fix fixStress5 all ave/time 1 ${NsaveStress} ${NsaveStress} c_p c_press[*] c_pressVirial[*] c_pressVirialMod[*] c_stress[*] c_stressVirial[*] c_stressVirialMod[*] file ${Dir}/${file2_name}
fix fixStress5 all ave/time 1 1000 ${NsaveStress} c_p c_press[*] c_pressVirial[*] c_pressVirialMod[*] c_stress[*] c_stressVirial[*] c_stressVirialMod[*] file ${Dir}/${file2_name}
fix fixStress5 all ave/time 1 1000 1000 c_p c_press[*] c_pressVirial[*] c_pressVirialMod[*] c_stress[*] c_stressVirial[*] c_stressVirialMod[*] file ${Dir}/${file2_name}
fix fixStress5 all ave/time 1 1000 1000 c_p c_press[*] c_pressVirial[*] c_pressVirialMod[*] c_stress[*] c_stressVirial[*] c_stressVirialMod[*] file /home/franvt/GitRepos/molDynLammps/polymericGels/gel-bonds-1/data/0.050.30.05500-2026-01-21-161335/${file2_name}
fix fixStress5 all ave/time 1 1000 1000 c_p c_press[*] c_pressVirial[*] c_pressVirialMod[*] c_stress[*] c_stressVirial[*] c_stressVirialMod[*] file /home/franvt/GitRepos/molDynLammps/polymericGels/gel-bonds-1/data/0.050.30.05500-2026-01-21-161335/stress_assembly.fixf

# Save the global cluster information
fix 1 CM ave/time 1 1 ${Ndump} c_idcl c_clsize file ${Dir}/${file3_name} mode vector
fix 1 CM ave/time 1 1 1000 c_idcl c_clsize file ${Dir}/${file3_name} mode vector
fix 1 CM ave/time 1 1 1000 c_idcl c_clsize file /home/franvt/GitRepos/molDynLammps/polymericGels/gel-bonds-1/data/0.050.30.05500-2026-01-21-161335/${file3_name} mode vector
fix 1 CM ave/time 1 1 1000 c_idcl c_clsize file /home/franvt/GitRepos/molDynLammps/polymericGels/gel-bonds-1/data/0.050.30.05500-2026-01-21-161335/clust_assembly.fixf mode vector

# Save atom positions with cluster id
dump dumpID all custom ${Ndump} ${Dir}/traj/${file5_name} id mol c_clusters type x y z vx vy vz
dump dumpID all custom 1000 ${Dir}/traj/${file5_name} id mol c_clusters type x y z vx vy vz
dump dumpID all custom 1000 /home/franvt/GitRepos/molDynLammps/polymericGels/gel-bonds-1/data/0.050.30.05500-2026-01-21-161335/traj/${file5_name} id mol c_clusters type x y z vx vy vz
dump dumpID all custom 1000 /home/franvt/GitRepos/molDynLammps/polymericGels/gel-bonds-1/data/0.050.30.05500-2026-01-21-161335/traj/traj_assembly.*.dumpf id mol c_clusters type x y z vx vy vz
dump_modify dumpID pbc yes # remap atoms via periodic boundary conditions

# RUN SIMULATION

# Brownian Dynamics using Langevin Thermostat

timestep ${tstep}
timestep 0.001

fix VelVerlet all nve # Use Velocity Verlet integrator

# First elevate the temperature
fix ThermoLng all langevin 0.0 ${temp} ${damp} ${seed3} tally yes zero yes # Brownian Dynamics: langevin + nve
fix ThermoLng all langevin 0.0 0.05 ${damp} ${seed3} tally yes zero yes 
fix ThermoLng all langevin 0.0 0.05 1 ${seed3} tally yes zero yes 
fix ThermoLng all langevin 0.0 0.05 1 2010 tally yes zero yes 
run ${stepsheat}
run 500000
WARNING: Using a manybody potential with bonds/angles/dihedrals and special_bond exclusions (src/pair.cpp:250)
Hybrid pair style last /omp style table/omp
Last active /omp style is angle_style harmonic/omp
Neighbor list info ...
  update: every = 1 steps, delay = 0 steps, check = yes
  max neighbors/atom: 2000, page size: 100000
  master list distance cutoff = 2.92
  ghost atom cutoff = 2.92
  binsize = 1.46, bins = 14 14 14
  7 neighbor lists, perpetual/occasional/extra = 6 1 0
  (1) pair zero, perpetual, skip from (7)
      attributes: half, newton on, omp
      pair build: skip/omp
      stencil: none
      bin: none
  (2) pair lj/cut/omp, perpetual, skip from (7)
      attributes: half, newton on, omp
      pair build: skip/omp
      stencil: none
      bin: none
  (3) pair table/omp, perpetual, skip from (7)
      attributes: half, newton on, omp
      pair build: skip/omp
      stencil: none
      bin: none
  (4) pair threebody/table, perpetual, skip from (6)
      attributes: full, newton on, omp
      pair build: skip/omp
      stencil: none
      bin: none
  (5) compute aggregate/atom, occasional, copy from (6)
      attributes: full, newton on, omp
      pair build: copy
      stencil: none
      bin: none
  (6) neighbor class addition, perpetual
      attributes: full, newton on, omp
      pair build: full/bin/omp
      stencil: full/bin/3d
      bin: standard
  (7) neighbor class addition, perpetual, half/full from (6)
      attributes: half, newton on, omp
      pair build: halffull/newton/omp
      stencil: none
      bin: none
Per MPI rank memory allocation (min/avg/max) = 20.03 | 20.03 | 20.03 Mbytes
   Step          Temp          E_pair         E_mol          TotEng         Press     
         0   0              0.00041490155  0.15480456     0.15521947    -0.21361809   
      1000   0.038128237    0              0.00013757075  0.057293028    0.0036255212 
      2000   0.00015524756  8.543009e-08   0.020977048    0.021209855    0.068369326  
      3000   0.0053601671   0              0.0001566732   0.0081917366   0.0024773034 
      4000   0.00032043582  0              0.0030278828   0.0035082264  -0.026562159  
      5000   0.0011098552   0              0.00027894739  0.0019426561  -0.0005261401 
      6000   0.00052871377  0              0.00073390715  0.0015264661   0.0095531329 
      7000   0.00072896697  0              0.00040823029  0.0015009753  -1.2979742e-05
      8000   0.0007251149   0              0.00053299756  0.0016199682  -0.0032626071 
      9000   0.00081771509  1.3387704e-06  0.00052435467  0.0017514747   2.4759112e-06
     10000   0.00090243713  0              0.0006006103   0.0019533927   0.0011493598 
     11000   0.0010197323   0              0.00066288448  0.0021914962  -0.00042254769
     12000   0.0011051079   0              0.00072884253  0.0023854349  -0.00024522879
     13000   0.0011985165   0              0.00078137006  0.0025779849   0.00057614678
     14000   0.0013249056   0              0.00085482435  0.0028409006   0.00081224385
     15000   0.0014112991   0              0.00096232634  0.0030779093  -0.00010780047
     16000   0.0015343975   0              0.0010154688   0.0033155802  -0.00081771796
     17000   0.0016020278   4.7441589e-08  0.0010642477   0.0034657865   0.00030980887
     18000   0.0017598133   0              0.0011497192   0.003787736    0.0012942109 
     19000   0.0018430414   0              0.0012059735   0.003968752    5.7970273e-05
     20000   0.0019080305   0              0.0012946994   0.0041548986  -0.00044607826
     21000   0.001992366    5.7799363e-07  0.0013610759   0.0043482748   0.00069963965
     22000   0.0021283243  -3.6672612e-09  0.0014649008   0.0046553239   0.00056659963
     23000   0.0025735469  -0.0015218821   0.0017283014   0.004064249    0.00012610136
     24000   0.0024444094  -0.0016039619   0.0016864538   0.0037467405  -0.00025353478
     25000   0.0024681684  -0.0016016608   0.0016795706   0.0037777739  -0.00025316254
     26000   0.0025092316  -0.001589946    0.001707866    0.0038793392   0.00073864395
     27000   0.0030589285  -0.0031177114   0.002012252    0.0034799731   0.00066127919
     28000   0.002845273   -0.0031717067   0.0020052056   0.003098655   -0.00065030665
     29000   0.0028512639  -0.0032042003   0.0019482227   0.0030181589  -0.00057429635
     30000   0.0032344357  -0.0047618896   0.0020775691   0.0021642029  -0.00033739482
     31000   0.0030894149  -0.0048363168   0.0022389438   0.0020337595  -5.3009553e-05
     32000   0.0032581607  -0.0048324545   0.0021927205   0.0022443541   0.0004081845 
     33000   0.0032215756  -0.0048326584   0.0023286392   0.0023252265   0.00081874659
     34000   0.0040031854  -0.0075381178   0.0027834668   0.0012462531  -0.00038818505
     35000   0.0034571004  -0.0077706526   0.0024728762  -0.00011547145 -0.00047436738
     36000   0.0044781808  -0.010762873    0.002879389   -0.0011705465   0.00029027022
     37000   0.0046349367  -0.012733258    0.0026719396  -0.0031133985   0.0014358727 
     38000   0.003998545   -0.012685588    0.002635141   -0.004056499    0.00085337462
     39000   0.0042627611  -0.014426017    0.0027870632  -0.0052489372  -0.00031597353
     40000   0.004134619   -0.014466278    0.0026197665  -0.0056485844  -0.0001137876 
     41000   0.0039847584  -0.014424344    0.0027835834  -0.005667479    0.0012337074 
     42000   0.0041003877  -0.014461977    0.0027443035  -0.00557106     0.00093054757
     43000   0.0046610268  -0.016092878    0.0029636582  -0.0061421907  -0.00089918803
     44000   0.0050067312  -0.017410171    0.0032844405  -0.0066204791   0.00065734213
     45000   0.004455419   -0.017661738    0.0034852371  -0.0074976837   0.00065597604
     46000   0.0051730411  -0.018875657    0.0031358034  -0.0079852986   0.0012827956 
     47000   0.0048234191  -0.020213159    0.0036651187  -0.0093175793  -0.00014686758
     48000   0.0050129943  -0.020804911    0.0032635772  -0.010026693    0.0010465819 
     49000   0.0048960789  -0.02092223     0.003432082   -0.010150768    0.00069088756
     50000   0.0049235086  -0.020936616    0.0033882007  -0.010167917    0.00079825125
     51000   0.00492648    -0.020952896    0.0034339135  -0.01013403    -9.9449397e-06
     52000   0.0049640066  -0.020935875    0.0036265379  -0.0098681306   0.0005278417 
     53000   0.0051770599  -0.020929367    0.003623604   -0.0095451832   0.00036990358
     54000   0.0052657508  -0.020944248    0.0034947157  -0.0095560024   0.00086037796
     55000   0.0060853671  -0.023751249    0.0038114575  -0.01081763    -0.0011225271 
     56000   0.0062538265  -0.025626116    0.0044453757  -0.011806053   -0.00027783503
     57000   0.0059547504  -0.025535002    0.0040988231  -0.012509816    0.00078965433
     58000   0.0058286135  -0.025713989    0.0042028718  -0.012773837    0.00087809502
     59000   0.0059676236  -0.025765081    0.004081245   -0.012738176   -0.00083566962
     60000   0.0062263966  -0.028179923    0.0047460447  -0.014100309   -0.00074142725
     61000   0.0059818772  -0.028790768    0.0043156234  -0.015508118    0.0019284784 
     62000   0.0067672005  -0.030551642    0.0044656802  -0.01594171     0.00085783845
     63000   0.0061759127  -0.030546407    0.0042984406  -0.016990074    0.00022777165
     64000   0.006368309   -0.030614988    0.0043737853  -0.016694903    0.00091681367
     65000   0.006979178   -0.03180092     0.0046508149  -0.016688092   -0.0010421423 
     66000   0.006667507   -0.033497093    0.0049865955  -0.018515689   -0.00018351472
     67000   0.0070366041  -0.035029979    0.0048388929  -0.019642989    0.001288804  
     68000   0.0066585769  -0.035294355    0.0049549037  -0.020358029    0.00035402746
     69000   0.00774469    -0.03695675     0.0046795276  -0.020667683    0.00070925206
     70000   0.0075509027  -0.04064005     0.0055705939  -0.02375041    -0.0018496157 
     71000   0.0080932312  -0.043399417    0.005499981   -0.025767421    0.0017198277 
     72000   0.0073398181  -0.043454734    0.0052650805  -0.02718703     0.0016786875 
     73000   0.0082095926  -0.045840785    0.0054637154  -0.028070625    0.0004600615 
     74000   0.0077800166  -0.046450173    0.0052802499  -0.029507427   -0.00041996995
     75000   0.0074292031  -0.046591614    0.0053660244  -0.030088975   -0.00041463259
     76000   0.0080027951  -0.048257038    0.0055370475  -0.030723543    0.0020339269 
     77000   0.0076748602  -0.048277163    0.0053867585  -0.031385542    0.001708909  
     78000   0.008144959   -0.049644101    0.0054825338  -0.03195201    -0.00091277784
     79000   0.0074898826  -0.051124451    0.005852221   -0.034044654    0.00045086305
     80000   0.0082122728  -0.052183593    0.0058364175  -0.034036714   -0.00035149015
     81000   0.0085000032  -0.054556112    0.0056781302  -0.036136202    0.00015970755
     82000   0.0082185397  -0.056153057    0.0062090051  -0.037624196    0.00014269859
     83000   0.0096146426  -0.058705174    0.006278348   -0.038014166    0.00037179401
     84000   0.0092357251  -0.059354831    0.005857861   -0.03965232     0.00047488718
     85000   0.0081015621  -0.059531149    0.0058980691  -0.041488577   -9.8837603e-05
     86000   0.0088965743  -0.061422849    0.0060647872  -0.04202181    -0.00091965681
     87000   0.008721849   -0.062409196    0.0064831676  -0.042851695    0.0029836841 
     88000   0.010043441   -0.06582373     0.0067625536  -0.044005735    0.0013747767 
     89000   0.0095545455  -0.066951882    0.0061576629  -0.046471648    0.00010086466
     90000   0.010147375   -0.069095769    0.0060937386  -0.047790787    0.00022778544
     91000   0.0092176955  -0.069033274    0.0067508475  -0.048464804    0.00063674755
     92000   0.0095120861  -0.070714241    0.0067916841  -0.049663633    0.0015618703 
     93000   0.0092714691  -0.070794768    0.006522662   -0.050373875    0.0014469555 
     94000   0.0093884616  -0.070797593    0.0067830233  -0.049940963    0.0010637428 
     95000   0.010528898   -0.073839706    0.0066369646  -0.051419583    0.0018230506 
     96000   0.0097243418  -0.073761103    0.0063165777  -0.052867424   -0.0007493365 
     97000   0.010361445   -0.075603985    0.0070295896  -0.053042255    0.00013826626
     98000   0.010936829   -0.078282777    0.0072153604  -0.054672758    0.00022203233
     99000   0.010007058   -0.07857286     0.0069755328  -0.056596425   -0.00061588076
    100000   0.010245952   -0.0787175      0.0072617911  -0.056096696   -0.00060968091
    101000   0.010321905   -0.080184721    0.006843532   -0.05786832    -2.6514343e-05
    102000   0.0098863423  -0.080469564    0.0071374487  -0.05851217     0.0013675838 
    103000   0.011470406   -0.083627393    0.0076160969  -0.058816787    0.00050325661
    104000   0.011527542   -0.085612898    0.0075690398  -0.060763701    0.0024648261 
    105000   0.011119937   -0.087780608    0.0078257665  -0.063285697    0.00052593822
    106000   0.01170929    -0.09016856     0.0077799722  -0.064835983   -0.0010794652 
    107000   0.011522565   -0.09285923     0.0077139178  -0.067872615    0.0014563314 
    108000   0.013520888   -0.099770544    0.0085623327  -0.070939963    0.0011599371 
    109000   0.011529412   -0.1033862      0.0088490306  -0.077254211    9.9780679e-05
    110000   0.012026175   -0.10566135     0.0082480033  -0.079385721    0.00075832342
    111000   0.011215969   -0.10599615     0.0076627336  -0.081520322    0.00083506577
    112000   0.011155031   -0.10616894     0.0077189127  -0.081728273   -0.00026488348
    113000   0.011436224   -0.10621597     0.0077084037  -0.081364294    7.3577918e-05
    114000   0.012672019   -0.11039043     0.0085998253  -0.082794837    0.0012530127 
    115000   0.012153045   -0.11208671     0.0085175372  -0.085351362   -6.4095154e-05
    116000   0.012049636   -0.11466189     0.0086054506  -0.087993642   -0.0015391253 
    117000   0.012448566   -0.11856827     0.0086705752  -0.091236893    0.00087684765
    118000   0.012229598   -0.12036928     0.0083479874  -0.093688726   -0.00086915185
    119000   0.012136514   -0.12031808     0.0084677455  -0.093657312    0.00090203886
    120000   0.012405217   -0.11980124     0.0082973282  -0.092908094    0.0027784609 
    121000   0.01216286    -0.12125998     0.0088332424  -0.09419422     0.0010084621 
    122000   0.012280258   -0.12180422     0.008519426   -0.094876292    0.0011501149 
    123000   0.0119694     -0.12178419     0.0082639217  -0.095577752   -0.0012771563 
    124000   0.011918308   -0.1218545      0.0085831164  -0.095405451    0.00031373281
    125000   0.013801348   -0.12482213     0.0083933681  -0.095740099    0.00057750265
    126000   0.013616725   -0.12645631     0.0088856725  -0.097158731    0.00067216919
    127000   0.013632549   -0.12751627     0.0092444224  -0.097836219    0.00067126312
    128000   0.013082223   -0.12901437     0.0093984489  -0.10000525     0.0016085458 
    129000   0.013316983   -0.12989999     0.0091087605  -0.10082865     0.0016385372 
    130000   0.013461839   -0.13206966     0.0095759335  -0.10231399     0.001060419  
    131000   0.0144523     -0.1357464      0.0096877092  -0.10439422     0.0012619591 
    132000   0.014057915   -0.13806228     0.0098856891  -0.10710333    -5.81398e-06  
    133000   0.0138814     -0.13940071     0.0089402869  -0.10965176     0.00034740175
    134000   0.013707567   -0.14102592     0.0091940574  -0.11128378     0.0017736808 
    135000   0.013412127   -0.14090684     0.0095752716  -0.11122636    -0.00091392465
    136000   0.013506589   -0.1410246      0.0091897345  -0.11158805    -0.0015402011 
    137000   0.013933745   -0.14102801     0.0096436523  -0.11049723    -0.00094365206
    138000   0.014285601   -0.14406994     0.0099157453  -0.11273962     0.00016586295
    139000   0.014506497   -0.14581197     0.0094368108  -0.11462945     1.8078784e-05
    140000   0.014873154   -0.1472605      0.0098586601  -0.1151065      0.0017027644 
    141000   0.01460988    -0.15033378     0.0099169061  -0.1185162      0.0024859921 
    142000   0.013829296   -0.15049701     0.0097470025  -0.12001945     0.0015794151 
    143000   0.014860329   -0.15489131     0.010255289   -0.12235991     0.00031329206
    144000   0.015912267   -0.15875247     0.010917139   -0.12398233    -0.0027987628 
    145000   0.015599815   -0.16234544     0.010069664   -0.12889115    -0.00076096467
    146000   0.015956953   -0.1662256      0.010549307   -0.13175631     0.0025595324 
    147000   0.014876722   -0.16763377     0.010220865   -0.13511222     0.00095825203
    148000   0.01610786    -0.16845664     0.010666943   -0.13364349    -0.0002078546 
    149000   0.01650587    -0.17117518     0.010873462   -0.13555888     0.0016288133 
    150000   0.015126737   -0.17355976     0.010588477   -0.14029581     0.0006332738 
    151000   0.015335284   -0.17380541     0.010238104   -0.14057922     0.0028503184 
    152000   0.016391786   -0.17576219     0.010540278   -0.1406501      0.0005028588 
    153000   0.016102427   -0.17823991     0.011228807   -0.14287305     0.00029010964
    154000   0.01571866    -0.1780082      0.010589748   -0.14385568     0.0020606903 
    155000   0.017298362   -0.18373897     0.011687164   -0.146121       0.0017167223 
    156000   0.018174528   -0.18791965     0.011636314   -0.14903913     0.00096180898
    157000   0.017234124   -0.19133213     0.011269413   -0.15422821     0.00098974626
    158000   0.016838573   -0.19521203     0.011805522   -0.15816494    -0.0010362033 
    159000   0.016788168   -0.19707397     0.010973313   -0.16093465    -0.00052221311
    160000   0.016248263   -0.19740175     0.011380746   -0.16166433     0.0028711294 
    161000   0.015887872   -0.19767248     0.011407405   -0.16244864     0.00095001602
    162000   0.017037109   -0.19853096     0.011498083   -0.1614937      0.0010374838 
    163000   0.016634958   -0.20051144     0.011955834   -0.16361927     0.00033158449
    164000   0.018136653   -0.20483928     0.011102109   -0.16654974     0.0012826977 
    165000   0.016533361   -0.20656428     0.011305753   -0.17047449     0.0030800036 
    166000   0.016912553   -0.20912538     0.011905288   -0.17186763     0.0019629801 
    167000   0.01688102    -0.21199877     0.012365602   -0.17432797    -0.00021493049
    168000   0.016955484   -0.21264708     0.011867754   -0.17536251     0.0026363546 
    169000   0.016931311   -0.21313598     0.012000834   -0.17575456     0.0051523548 
    170000   0.016648303   -0.21336284     0.011887556   -0.17651894     0.00079977142
    171000   0.017009968   -0.2132876      0.011910498   -0.17587861     0.0010398651 
    172000   0.017260546   -0.21572883     0.012572174   -0.17728254     0.0012427885 
    173000   0.017909208   -0.21666997     0.011792719   -0.17803077     0.00048864681
    174000   0.01771221    -0.21827235     0.012126447   -0.17959473     0.00081832748
    175000   0.018216659   -0.21794496     0.012241201   -0.1783964     -1.6199504e-05
    176000   0.017121459   -0.21806382     0.01181717    -0.18058103     0.0024541064 
    177000   0.018459084   -0.22058716     0.012662271   -0.18025412    -0.0012589393 
    178000   0.017858177   -0.2209287      0.012448248   -0.18171047     0.0013605624 
    179000   0.018019848   -0.22112171     0.01164751    -0.18246187     0.0028506781 
    180000   0.019981823   -0.22700723     0.013363973   -0.18368986    -0.00096302217
    181000   0.019058622   -0.22876005     0.012364201   -0.18782636     0.0056727614 
    182000   0.019149815   -0.23050149     0.012922917   -0.18887238     0.0040199223 
    183000   0.018551726   -0.23067158     0.01256161    -0.19030033     0.0011571488 
    184000   0.019907338   -0.23360619     0.01327534    -0.19048911     0.0014561045 
    185000   0.019554201   -0.23595347     0.01311855    -0.19352254     0.0033032979 
    186000   0.018518591   -0.23704617     0.013244207   -0.196042       1.855469e-05 
    187000   0.019199171   -0.23843424     0.012911923   -0.19674214     0.0014775272 
    188000   0.020076621   -0.2419429      0.013845994   -0.1980014      0.0030957443 
    189000   0.019858987   -0.24389182     0.013000991   -0.20112157    -0.00068862432
    190000   0.01927203    -0.24453726     0.013543915   -0.20210395     0.0022263595 
    191000   0.019117745   -0.24379735     0.014003735   -0.20113549     0.0021939789 
    192000   0.020925338   -0.24899033     0.013564161   -0.20405841    -0.00052958497
    193000   0.02010208    -0.25046238     0.013526306   -0.20680241     0.0025427645 
    194000   0.020405476   -0.25393252     0.013385814   -0.20995824     0.0010908063 
    195000   0.020854846   -0.2582882      0.014324817   -0.2127013      0.0014112683 
    196000   0.020522765   -0.26034423     0.013399082   -0.21618086    -0.00062154116
    197000   0.020351505   -0.26058771     0.013489257   -0.21659089     0.0013557635 
    198000   0.020373937   -0.26326142     0.014722812   -0.21799742    -0.0030450838 
    199000   0.020477193   -0.26628923     0.015580656   -0.2200126      0.0029663904 
    200000   0.020633642   -0.26683774     0.014078963   -0.22182828     0.0062309121 
    201000   0.020427773   -0.26829344     0.013651226   -0.22402032    -0.00027231872
    202000   0.020347359   -0.26918512     0.013892195   -0.22479158    -0.00023505002
    203000   0.02026051    -0.26964718     0.014121477   -0.22515455     0.0031827128 
    204000   0.021265857   -0.27245654     0.014687959   -0.22589038     3.1237602e-05
    205000   0.020926011   -0.27283129     0.014948416   -0.22651411    -0.00079028334
    206000   0.021557361   -0.27593109     0.014993052   -0.22862286     0.0016592197 
    207000   0.021458537   -0.27660198     0.014347226   -0.23008771     0.00092877298
    208000   0.021765155   -0.28189897     0.01450058    -0.23477172     0.0022480877 
    209000   0.020289327   -0.28566454     0.014752797   -0.24049739     0.0015120473 
    210000   0.021016084   -0.28775539     0.014230346   -0.24202126     0.0050366813 
    211000   0.022366031   -0.29005544     0.014997147   -0.24153089     0.0024975083 
    212000   0.021287227   -0.29015695     0.015135083   -0.24311163    -0.00049981278
    213000   0.022739494   -0.29291234     0.015376386   -0.24344872    -0.00107864   
    214000   0.022622102   -0.29481904     0.014970434   -0.24593735     0.00405476   
    215000   0.022853786   -0.29794859     0.015862726   -0.2478273      0.0019543796 
    216000   0.023034254   -0.301222       0.015926809   -0.2507661      0.00071738535
    217000   0.022178296   -0.30366517     0.01595366    -0.25446553     0.0031974513 
    218000   0.022683602   -0.30626732     0.015852496   -0.25641138    -0.0021921835 
    219000   0.022213458   -0.30761184     0.015417533   -0.25889562     0.0014097438 
    220000   0.022501932   -0.30859901     0.015692446   -0.25917545     0.0075381014 
    221000   0.022437702   -0.3090051      0.014897036   -0.26047323     0.00047278807
    222000   0.021724066   -0.30892932     0.01508882    -0.26127543     0.0010671938 
    223000   0.022088481   -0.31055489     0.015175294   -0.26226825     0.00079786459
    224000   0.022521233   -0.30985457     0.01579623    -0.26029828     0.0014922152 
    225000   0.022902601   -0.31059796     0.014744779   -0.26152144     0.0019442288 
    226000   0.023861123   -0.31453116     0.01550708    -0.26325548     5.7224033e-05
    227000   0.023745734   -0.31647108     0.016153965   -0.2647215      0.0043434101 
    228000   0.02349222    -0.31707746     0.016405233   -0.26545663     0.0063245027 
    229000   0.023128298   -0.31860084     0.016113165   -0.26781761    -0.0015889102 
    230000   0.023994179   -0.32001531     0.015915849   -0.26813141     0.00035213258
    231000   0.023468265   -0.3208249      0.015759343   -0.26988587     0.002039182  
    232000   0.023355875   -0.32229623     0.016389067   -0.27089595     0.0020440323 
    233000   0.024894863   -0.32429657     0.015633299   -0.27134507     0.0037761974 
    234000   0.025016814   -0.32699316     0.017447011   -0.27204514     0.0060185098 
    235000   0.026525355   -0.33060853     0.016705785   -0.27414038     0.0010767197 
    236000   0.023315253   -0.33021311     0.01671021    -0.27855258     0.0015674793 
    237000   0.023584717   -0.3304427      0.016201656   -0.27888679     0.00322235   
    238000   0.024333599   -0.33175458     0.01592922    -0.27934851    -0.00026389225
    239000   0.024399485   -0.33187778     0.016772316   -0.27852985     0.0010996807 
    240000   0.024393833   -0.3331374      0.017922406   -0.27864785     0.0021272349 
    241000   0.025129465   -0.33366645     0.017304963   -0.27869161     0.0027977256 
    242000   0.025154048   -0.33471024     0.01668782    -0.28031569     0.0081788307 
    243000   0.024646245   -0.33544292     0.016623256   -0.28187415     0.0048380302 
    244000   0.025408991   -0.34045691     0.017443119   -0.28492489    -0.00019628355
    245000   0.025010268   -0.34079108     0.016499489   -0.28680039    -2.0047274e-05
    246000   0.023774347   -0.34100534     0.017477194   -0.28788963     0.0025294186 
    247000   0.024944262   -0.34229478     0.016426785   -0.28847574     0.0046647231 
    248000   0.025461841   -0.34397189     0.016766218   -0.28903755     0.0027127691 
    249000   0.025102081   -0.34522222     0.016556484   -0.29103691     0.003830093  
    250000   0.025336862   -0.34817899     0.017709045   -0.29248917     0.0042030708 
    251000   0.025251469   -0.34853528     0.017315713   -0.2933668      0.0013734375 
    252000   0.026181488   -0.34989392     0.018790409   -0.29185661     0.0050158544 
    253000   0.025569579   -0.35259792     0.019073528   -0.29519477     0.00036400593
    254000   0.026360794   -0.3558845      0.018310895   -0.29805793     0.002542127  
    255000   0.026008513   -0.35823047     0.018125713   -0.30111716    -0.00033661037
    256000   0.026105516   -0.3602577      0.017642295   -0.3034824      0.0012306756 
    257000   0.026211905   -0.36520616     0.017686525   -0.30822715     0.0019820752 
    258000   0.027262455   -0.3695203      0.017543682   -0.31110931    -0.0019845873 
    259000   0.027480367   -0.37363235     0.017871688   -0.3145667      0.0023307064 
    260000   0.026653696   -0.37505688     0.0182205     -0.31688163     0.0022737868 
    261000   0.027253947   -0.38063775     0.017699119   -0.32208408    -0.0013286962 
    262000   0.026974844   -0.38285295     0.018814136   -0.32360266     0.00052322409
    263000   0.027524582   -0.38388676     0.018709838   -0.32391669     0.0037709044 
    264000   0.027699518   -0.38479874     0.019098087   -0.32417818    -0.00150513   
    265000   0.02773351    -0.38519349     0.018309914   -0.32531015     0.002853749  
    266000   0.027721592   -0.38614392     0.020731006   -0.32385735    -0.00021313308
    267000   0.027629284   -0.38822348     0.019367374   -0.32743892    -0.0025394779 
    268000   0.02692132    -0.39001123     0.020020646   -0.32963466     0.0032282923 
    269000   0.029052669   -0.39267401     0.018461565   -0.33066155     0.0047515921 
    270000   0.027541519   -0.39293647     0.018844322   -0.33280652    -0.0013880095 
    271000   0.027813922   -0.39465446     0.019686943   -0.33327355     0.0060733997 
    272000   0.027422338   -0.39606196     0.019872894   -0.3350821      0.00090362254
    273000   0.02768958    -0.39632782     0.018468735   -0.33635151    -0.004131333  
    274000   0.02659845    -0.39583202     0.019104557   -0.33685552     0.0023954863 
    275000   0.027661701   -0.39683544     0.019966461   -0.3354032      0.0025414087 
    276000   0.028654165   -0.39763431     0.018957993   -0.3357228     -0.0019387911 
    277000   0.029134636   -0.39755049     0.019110705   -0.33476602     0.0059025827 
    278000   0.02773689    -0.39996215     0.019823952   -0.33855971     0.00093369171
    279000   0.028477154   -0.40049407     0.019620836   -0.33818506     0.0059884617 
    280000   0.029040152   -0.40171406     0.020162368   -0.33801957     0.0012695496 
    281000   0.027945226   -0.40183419     0.019867457   -0.34007594    -0.0022597427 
    282000   0.030256292   -0.40477001     0.02083604    -0.33857882     0.0045966336 
    283000   0.02920677    -0.40549628     0.020053964   -0.34166043     0.0019877684 
    284000   0.030483624   -0.40664816     0.019565627   -0.3413866      0.0058307541 
    285000   0.029073792   -0.40831571     0.019397111   -0.34533605    -0.00028065626
    286000   0.028975117   -0.40863558     0.019980531   -0.34522041     0.0041489774 
    287000   0.028397582   -0.40869474     0.020556934   -0.34556891     0.0070089394 
    288000   0.029093514   -0.40928426     0.020875841   -0.3447963     -0.0032062612 
    289000   0.029797389   -0.41147723     0.020752702   -0.34605728     0.0028333973 
    290000   0.029622887   -0.41109268     0.021916615   -0.34477041     0.0035584529 
    291000   0.030956442   -0.4154638      0.020318234   -0.34874086     0.0045593355 
    292000   0.029920752   -0.41600202     0.022146454   -0.34900339     0.00032980708
    293000   0.030272039   -0.41577958     0.020155489   -0.35024533     0.0071775323 
    294000   0.030475562   -0.41642587     0.020874711   -0.34986731     0.0025019968 
    295000   0.029991995   -0.4171841      0.02069254    -0.35153259     0.010117858  
    296000   0.029716917   -0.41849056     0.021828519   -0.35211542     0.0077093738 
    297000   0.030167104   -0.41848705     0.022064086   -0.35120151    -0.0025199614 
    298000   0.030145831   -0.41990863     0.021505481   -0.35321357     0.0040064778 
    299000   0.03086751    -0.42206564     0.020956614   -0.35483763     0.0034447365 
    300000   0.030900145   -0.42442031     0.021107011   -0.35699299     0.0025016591 
    301000   0.03007987    -0.42662028     0.021032794   -0.36049679     0.0044483981 
    302000   0.031198457   -0.42827659     0.021235477   -0.36027362     0.0019611851 
    303000   0.030156061   -0.42975581     0.021270821   -0.36328009     0.0071275802 
    304000   0.03005926    -0.43064573     0.020816876   -0.36476905     0.0079928844 
    305000   0.030103565   -0.43141177     0.020640175   -0.36564538     0.0021790563 
    306000   0.030530842   -0.43391625     0.021115177   -0.36703435     0.0015000375 
    307000   0.031181194   -0.43752101     0.022416467   -0.36836293    -0.00023368813
    308000   0.031273986   -0.43861432     0.022603858   -0.36912975    -0.00067472849
    309000   0.031157025   -0.44071068     0.022216234   -0.37178906     0.0031443251 
    310000   0.031112013   -0.43967019     0.022231381   -0.3708009      0.0020624538 
    311000   0.031846121   -0.44138461     0.023344482   -0.37030176    -0.0018741585 
    312000   0.032769955   -0.44265712     0.020803335   -0.37273057     0.00086026362
    313000   0.032697054   -0.44628718     0.02318043    -0.37409281     0.0037161355 
    314000   0.031601016   -0.44748694     0.022523559   -0.37759243     0.0058966834 
    315000   0.03093105    -0.448398       0.022758447   -0.37927291     0.00069455054
    316000   0.033091859   -0.4503824      0.021945652   -0.37883099     0.0056230006 
    317000   0.031777397   -0.44993088     0.02190617    -0.38038937     0.0010246674 
    318000   0.032722592   -0.451608       0.022373091   -0.38018269     0.0023210034 
    319000   0.032667857   -0.45325339     0.021938027   -0.38234519     0.004719572  
    320000   0.031859699   -0.45401005     0.022434764   -0.38381657     0.0048023663 
    321000   0.031830554   -0.45617503     0.022190056   -0.38626994    -3.8320533e-05
    322000   0.03264475    -0.4592706      0.021351212   -0.38898386    -0.0022313739 
    323000   0.031965754   -0.46186762     0.022496266   -0.39145366     0.0061694129 
    324000   0.032479624   -0.46213162     0.02318131    -0.3902623      0.0036301593 
    325000   0.031797469   -0.46190695     0.021975515   -0.392266      -0.0033765124 
    326000   0.033091619   -0.463906       0.02149772    -0.39280288     0.0016636878 
    327000   0.033100049   -0.46392958     0.023389404   -0.39092213    -0.0010615236 
    328000   0.032135946   -0.46442986     0.022893721   -0.39336332    -2.1912205e-06
    329000   0.033688706   -0.46635866     0.02275329    -0.39310491     0.0014211477 
    330000   0.034397155   -0.46846907     0.023039903   -0.39386672     0.0037363182 
    331000   0.034266275   -0.46954105     0.023689567   -0.39448523     0.0056873172 
    332000   0.033596525   -0.47098406     0.023861459   -0.39676033     0.00021289012
    333000   0.033239645   -0.47140327     0.022185163   -0.39939081     0.0040476726 
    334000   0.033292878   -0.47156605     0.022417804   -0.39924115     0.00016403398
    335000   0.033827213   -0.47154081     0.022741484   -0.39809125     0.0042863683 
    336000   0.035435125   -0.47441085     0.023322751   -0.3979697      0.0079936558 
    337000   0.033415923   -0.47647847     0.024456787   -0.40193014     0.0006647444 
    338000   0.034250341   -0.48085908     0.024027928   -0.40548879     0.0068803337 
    339000   0.034455852   -0.48168064     0.023821145   -0.40620906    -0.0022933584 
    340000   0.03521415    -0.48336923     0.025178848   -0.40540323     0.0042456007 
    341000   0.035315754   -0.48393032     0.024392704   -0.40659816     0.0026023874 
    342000   0.035016653   -0.48525612     0.024054146   -0.40871088     0.004230217  
    343000   0.032668776   -0.48498424     0.024409506   -0.41160318    -0.00033098744
    344000   0.034512692   -0.48671666     0.024114186   -0.41086684     0.0081047085 
    345000   0.033419293   -0.48835457     0.023444767   -0.41481321     0.00019029953
    346000   0.035424286   -0.48824873     0.023536168   -0.41161042     0.0012749912 
    347000   0.035956466   -0.49219354     0.024602231   -0.41369141    -0.0025388343 
    348000   0.035590391   -0.49289906     0.024324865   -0.41522305     0.0015325183 
    349000   0.035503675   -0.4966298      0.025763176   -0.41764547     0.0011415961 
    350000   0.035541313   -0.498951       0.024024766   -0.42164866     0.0044093239 
    351000   0.037816855   -0.49929559     0.024025942   -0.41858096     0.0028313435 
    352000   0.036326347   -0.49912745     0.025094393   -0.41957869     0.00096123537
    353000   0.03618223    -0.50060797     0.024058257   -0.42231138     0.0094072472 
    354000   0.03557442    -0.50041701     0.024413738   -0.42267607     0.0075002703 
    355000   0.037210214   -0.50125261     0.02342705    -0.42204624     0.002600836  
    356000   0.035243532   -0.50072403     0.023890838   -0.424002       0.0030969091 
    357000   0.036226302   -0.50088135     0.024504224   -0.42207273     0.0012827834 
    358000   0.03698253    -0.50105875     0.025325468   -0.42029527    -0.0049391836 
    359000   0.036175258   -0.50180393     0.025176334   -0.42239971    -0.0056788732 
    360000   0.03596816    -0.50171284     0.024069099   -0.4237263      0.0049323107 
    361000   0.035099747   -0.50273253     0.024277469   -0.42583941     0.0030617064 
    362000   0.034968795   -0.50318295     0.02498127    -0.42578233    -0.0031999155 
    363000   0.035694553   -0.5020038      0.025473432   -0.42302308     0.0085742433 
    364000   0.03764848    -0.50283949     0.024837859   -0.42156534    -0.00084514771
    365000   0.037007598   -0.50642578     0.027317567   -0.42363263     0.0015416381 
    366000   0.037166512   -0.50685175     0.025664174   -0.42547377     0.00048202288
    367000   0.037816252   -0.5064174      0.026642062   -0.42308756     0.0052432348 
    368000   0.037046017   -0.50879991     0.028226794   -0.42503994     0.0039461695 
    369000   0.036922631   -0.50908967     0.025318899   -0.42842256     0.0046331645 
    370000   0.037886055   -0.50928815     0.025661253   -0.42683448     0.0031441996 
    371000   0.037072855   -0.51198919     0.026687772   -0.42972802     0.0034574227 
    372000   0.037797224   -0.51336567     0.025939948   -0.43076646     0.0065349625 
    373000   0.038357644   -0.51344402     0.026090455   -0.42985422     0.0043983779 
    374000   0.037588768   -0.51412332     0.02682747    -0.43094908     0.0063698817 
    375000   0.038123281   -0.51424497     0.026508179   -0.43058876    -0.0073378284 
    376000   0.038181961   -0.51463068     0.024588167   -0.43280653     0.0041915498 
    377000   0.037171621   -0.51542285     0.02554217    -0.43415922     0.0052436788 
    378000   0.038875635   -0.51569724     0.025519176   -0.43190223    -0.0021459578 
    379000   0.037044809   -0.51784356     0.026748011   -0.43556418     0.0032169044 
    380000   0.037812865   -0.51837611     0.026019944   -0.43567346     0.0051091222 
    381000   0.038702588   -0.52048111     0.025601212   -0.43686347     0.011798791  
    382000   0.03781862    -0.52200569     0.026905355   -0.43840901     0.0018674683 
    383000   0.03850757    -0.52311245     0.026729885   -0.43865848    -0.0013451074 
    384000   0.038779518   -0.52268804     0.027732756   -0.43682354     0.0057582886 
    385000   0.038733295   -0.52621457     0.028251792   -0.43990032     0.0068122014 
    386000   0.040101881   -0.52833557     0.026067079   -0.44215448     0.0056004597 
    387000   0.039886516   -0.52836081     0.025884932   -0.44268471     0.0012525274 
    388000   0.037835415   -0.52915696     0.026978561   -0.44546189    -0.00049284548
    389000   0.039350908   -0.53015079     0.02694934    -0.44421317     0.0025957856 
    390000   0.039234848   -0.53168325     0.028050625   -0.44481833    -0.0005913833 
    391000   0.039971851   -0.53323929     0.025858279   -0.44746191     0.00079303976
    392000   0.04008563    -0.53554117     0.026880696   -0.44857082    -0.0021732579 
    393000   0.040570077   -0.53639493     0.025492076   -0.450087       0.0040322185 
    394000   0.03859992    -0.53660575     0.028881438   -0.44986178     0.0011234155 
    395000   0.039056855   -0.53832221     0.02743736    -0.45233737     0.0065404154 
    396000   0.040061615   -0.53963879     0.026584407   -0.45300073     0.011578873  
    397000   0.037373974   -0.53951927     0.02829373    -0.45520075    -0.0030244307 
    398000   0.040098257   -0.53882577     0.026935765   -0.45178143     0.001403636  
    399000   0.038674004   -0.53938576     0.02769729    -0.45371489    -0.00070316777
    400000   0.04214183    -0.54134444     0.027768741   -0.45040373     0.0042798868 
    401000   0.040328471   -0.54413836     0.029282102   -0.45440258     0.004818104  
    402000   0.040157813   -0.54427867     0.027983118   -0.4560977     -0.0026965308 
    403000   0.041345685   -0.54488278     0.028587568   -0.4543167      0.011277198  
    404000   0.041509554   -0.54578299     0.029703955   -0.45385488     0.0014725871 
    405000   0.040855054   -0.54491566     0.028281073   -0.45539154     0.0062338376 
    406000   0.041437826   -0.54839981     0.027562247   -0.45872093     0.0089058421 
    407000   0.041974362   -0.54931448     0.029084784   -0.45730878     0.0061994049 
    408000   0.041320418   -0.55154739     0.029453707   -0.46015304     0.0029756709 
    409000   0.041879313   -0.55337417     0.028529817   -0.46206591     0.0013889846 
    410000   0.042558194   -0.55285299     0.027592786   -0.4614641      0.0046429801 
    411000   0.042499554   -0.55373498     0.027640899   -0.46238587     0.0045195653 
    412000   0.041079146   -0.55435574     0.028114216   -0.46466256     0.003273414  
    413000   0.038267153   -0.55406764     0.027785053   -0.46891889     0.0034339496 
    414000   0.04167248    -0.55743915     0.029649343   -0.46532141     0.0078247849 
    415000   0.041177693   -0.55708137     0.029827269   -0.46552741    -0.00056851434
    416000   0.041837218   -0.55854577     0.028622276   -0.46720815     0.0018142926 
    417000   0.043774982   -0.56088009     0.029116221   -0.46614376     0.010155475  
    418000   0.041544449   -0.56251913     0.02992775    -0.47031491     0.0036443602 
    419000   0.043021431   -0.56371926     0.028283146   -0.4709456      0.0065715683 
    420000   0.044353051   -0.56656578     0.029991795   -0.47008733     0.0026139586 
    421000   0.043033295   -0.56584366     0.029197112   -0.47213825     0.0029245903 
    422000   0.042399005   -0.56636306     0.028713064   -0.47409252     0.0081078872 
    423000   0.041514561   -0.56696617     0.029800024   -0.47493448     0.0018184976 
    424000   0.042122318   -0.56883901     0.029044762   -0.47665154     0.0015581755 
    425000   0.04352966    -0.57137158     0.029201044   -0.47691817    -0.00029943325
    426000   0.04183758    -0.57158105     0.030871894   -0.47799328    -0.0024288048 
    427000   0.043254292   -0.57509914     0.029340083   -0.48091948     0.0040583865 
    428000   0.044448143   -0.57558745     0.02999073    -0.47896752     0.0048698423 
    429000   0.043314483   -0.57838457     0.031910527   -0.48154423     0.0030090409 
    430000   0.043271306   -0.5809196      0.032074068   -0.48398044     0.00337266   
    431000   0.045408302   -0.58398723     0.033124595   -0.48279412     0.005608984  
    432000   0.043807209   -0.58349614     0.031031988   -0.48679574     0.0029264617 
    433000   0.042427613   -0.58350222     0.029373118   -0.49052874    -0.0066343076 
    434000   0.043261775   -0.58292722     0.030778573   -0.48729785     0.014664945  
    435000   0.044066293   -0.58530259     0.030352751   -0.48889305     0.0021364235 
    436000   0.044417342   -0.58623347     0.02967526    -0.48997518     0.0079613457 
    437000   0.044994801   -0.58627001     0.031272026   -0.48754933     0.0016796416 
    438000   0.044232663   -0.58787803     0.031863151   -0.48970869     0.012331915  
    439000   0.044663885   -0.58715001     0.030958617   -0.48923879     0.01563933   
    440000   0.044039514   -0.58759977     0.029872614   -0.4917105      0.0075160245 
    441000   0.043094111   -0.58956996     0.03046821    -0.49450229     0.012619337  
    442000   0.045705715   -0.59159146     0.029787918   -0.4932892      0.013645862  
    443000   0.043522586   -0.59206053     0.03156297    -0.4952558      0.0041249252 
    444000   0.045521176   -0.59314749     0.030381955   -0.49452783     0.0037427923 
    445000   0.046457486   -0.59467887     0.030454384   -0.49458321    -0.00038204755
    446000   0.045025452   -0.59438187     0.03089014    -0.49599712     0.0094794963 
    447000   0.044563361   -0.59569751     0.031071293   -0.4978243      6.5936571e-06
    448000   0.044950087   -0.59541539     0.031378591   -0.49665516     0.0051815635 
    449000   0.045705537   -0.59421045     0.030569914   -0.49512646     0.0069603756 
    450000   0.045056735   -0.59474857     0.029458389   -0.49774868     0.0075321213 
    451000   0.044976569   -0.59443084     0.030495074   -0.49651444     0.0025985617 
    452000   0.045411267   -0.5945318      0.032080791   -0.49437805     0.0037630493 
    453000   0.04572842    -0.59612777     0.030897727   -0.49668166     0.0081942874 
    454000   0.046071409   -0.59788533     0.031576274   -0.49724652     0.013090511  
    455000   0.048699534   -0.60121938     0.030000761   -0.49821644    -0.0019710247 
    456000   0.047028048   -0.60481023     0.030017953   -0.50429572     0.0044440474 
    457000   0.046976953   -0.60621936     0.032049157   -0.50375023     0.0022651806 
    458000   0.0446439     -0.60763316     0.032833416   -0.5078771      0.0034082845 
    459000   0.047466338   -0.60850921     0.033163933   -0.5041917      0.001239058  
    460000   0.046884439   -0.60827763     0.031238925   -0.50675742    -0.00027192893
    461000   0.044980572   -0.60860413     0.033798913   -0.50737789     0.0014762082 
    462000   0.045894388   -0.60925103     0.032197786   -0.50825607     0.0017642593 
    463000   0.046358045   -0.6101096      0.031764427   -0.50885297     0.0041481869 
    464000   0.046914653   -0.61218916     0.033661494   -0.50820108     0.0043412192 
    465000   0.046252823   -0.61185838     0.032534573   -0.50998933     0.0034450408 
    466000   0.047063569   -0.61429297     0.032538683   -0.51120448     0.0079550385 
    467000   0.047860059   -0.6154724      0.032888688   -0.51083994     0.0018279352 
    468000   0.047897199   -0.61706777     0.034511459   -0.51075686     0.0011521255 
    469000   0.048946022   -0.61733566     0.032908841   -0.51105515     0.0017661667 
    470000   0.047170343   -0.61893823     0.032320837   -0.51590753     0.0015900972 
    471000   0.048816784   -0.61962364     0.033952171   -0.51249353     0.00085609783
    472000   0.047767522   -0.62206511     0.032912656   -0.5175474      0.0038846551 
    473000   0.047748954   -0.62239198     0.034249696   -0.51656506     0.0036624684 
    474000   0.047144767   -0.62461617     0.032796106   -0.52114853     0.0062229291 
    475000   0.046573395   -0.62506475     0.03279006    -0.52245967     0.011256322  
    476000   0.047841355   -0.62448363     0.033506956   -0.51926094     0.013646057  
    477000   0.049424382   -0.62324526     0.033503117   -0.5156534      0.013861461  
    478000   0.05165587    -0.62562467     0.033951466   -0.51423939     0.00033582676
    479000   0.048347914   -0.62642896     0.035849372   -0.51810451     0.005420239  
    480000   0.048143369   -0.62612787     0.03405697    -0.51990244     0.0080766123 
    481000   0.04961234    -0.62753679     0.034634404   -0.51853189     0.0020177651 
    482000   0.049668623   -0.62869288     0.035286085   -0.51895193     0.0098733118 
    483000   0.04865383    -0.6282231      0.034602702   -0.52068673     0.0060125915 
    484000   0.048683812   -0.62912132     0.033659375   -0.52248334    -0.00060226169
    485000   0.047906194   -0.62947599     0.034234722   -0.52342833     0.0028547873 
    486000   0.048412869   -0.62880287     0.033487012   -0.52274341    -0.0012265731 
    487000   0.048002603   -0.62996128     0.034812533   -0.52319129     0.0015757447 
    488000   0.050470629   -0.63190106     0.035034677   -0.52120928     0.010620639  
    489000   0.049584925   -0.63272752     0.034140334   -0.52425779    -0.0010503772 
    490000   0.049094435   -0.63393409     0.035710573   -0.52462938     0.00017761283
    491000   0.051117596   -0.6365049      0.03400846    -0.52586951    -0.00080883953
    492000   0.049381241   -0.63602166     0.036377119   -0.52562046    -0.002824054  
    493000   0.05028944    -0.63762021     0.035473801   -0.52676092     0.0039489654 
    494000   0.048373793   -0.63882428     0.033919099   -0.5323913     -0.0079703117 
    495000   0.047582181   -0.63767365     0.034857261   -0.53148917     0.0038208169 
    496000   0.048173768   -0.63853912     0.032141953   -0.53418314     0.0070957771 
    497000   0.049706217   -0.63868526     0.033587332   -0.53058671     0.0039615495 
    498000   0.04963311    -0.63854394     0.033733432   -0.53040888     0.011897704  
    499000   0.05037439    -0.63943807     0.0352854     -0.52863984     0.0041992981 
    500000   0.052161451   -0.64083138     0.035059969   -0.52757971     0.0081733659 
Loop time of 119.206 on 8 procs for 500000 steps with 1550 atoms

Performance: 362398.892 tau/day, 4194.432 timesteps/s, 6.501 Matom-step/s
92.5% CPU use with 8 MPI tasks x 1 OpenMP threads

MPI task timing breakdown:
Section |  min time  |  avg time  |  max time  |%varavg| %total
---------------------------------------------------------------
Pair    | 13.507     | 14.394     | 16.113     |  25.5 | 12.08
Bond    | 4.8086     | 5.2225     | 6.0255     |  16.5 |  4.38
Neigh   | 0.047315   | 0.04745    | 0.047597   |   0.1 |  0.04
Comm    | 10.107     | 12.536     | 13.989     |  38.2 | 10.52
Output  | 0.36843    | 0.38998    | 0.41193    |   2.3 |  0.33
Modify  | 85.117     | 85.272     | 85.415     |   1.1 | 71.53
Other   |            | 1.343      |            |       |  1.13

Nlocal:         193.75 ave         242 max         159 min
Histogram: 1 2 0 1 1 1 0 1 0 1
Nghost:            570 ave         644 max         516 min
Histogram: 2 1 0 0 0 3 1 0 0 1
Neighs:              0 ave           0 max           0 min
Histogram: 8 0 0 0 0 0 0 0 0 0
FullNghs:       3320.5 ave        4497 max        2709 min
Histogram: 3 1 1 1 0 0 0 0 1 1

Total # of neighbors = 26564
Ave neighs/atom = 17.138065
Ave special neighs/atom = 2.1612903
Neighbor list builds = 180
Dangerous builds = 0

unfix ThermoLng

# Now we let the system to create the polymeric network
fix ThermoLng all langevin ${temp} ${temp} ${damp} ${seed3} tally yes zero yes # Brownian Dynamics: langevin + nve
fix ThermoLng all langevin 0.05 ${temp} ${damp} ${seed3} tally yes zero yes 
fix ThermoLng all langevin 0.05 0.05 ${damp} ${seed3} tally yes zero yes 
fix ThermoLng all langevin 0.05 0.05 1 ${seed3} tally yes zero yes 
fix ThermoLng all langevin 0.05 0.05 1 2010 tally yes zero yes 
run ${steps}
run 5000000
WARNING: Using a manybody potential with bonds/angles/dihedrals and special_bond exclusions (src/pair.cpp:250)
Hybrid pair style last /omp style table/omp
Last active /omp style is angle_style harmonic/omp
Per MPI rank memory allocation (min/avg/max) = 24.03 | 24.04 | 24.04 Mbytes
   Step          Temp          E_pair         E_mol          TotEng         Press     
    500000   0.052161451   -0.64083138     0.035059969   -0.52757971     0.007430917  
    501000   0.051653602   -0.64132419     0.034348376   -0.5295454      0.006283045  
    502000   0.048905988   -0.64138369     0.034670678   -0.53340136    -0.0027086825 
    503000   0.050435843   -0.64315989     0.035306907   -0.53224803     0.0061060177 
    504000   0.052345135   -0.64283968     0.036077129   -0.5282955      0.0045100795 
    505000   0.050235751   -0.64472417     0.03547453    -0.53394462     0.0099114724 
    506000   0.05123387    -0.64557499     0.034136118   -0.53463765    -0.0060252295 
    507000   0.048444543   -0.64518846     0.034643749   -0.53792478     0.00054717857
    508000   0.05057548    -0.64750626     0.03538154    -0.53631044     0.012024587  
    509000   0.050866187   -0.64891161     0.035591495   -0.53707006     0.0044901553 
    510000   0.051801263   -0.65083028     0.035730748   -0.53744777     0.0043232023 
    511000   0.051602793   -0.65137469     0.035648432   -0.53837201     0.0011628483 
    512000   0.050443804   -0.65228183     0.035444086   -0.54122085     0.013751454  
    513000   0.049485119   -0.65082886     0.036020392   -0.54062868     2.9218374e-05
    514000   0.049047824   -0.6496408      0.035434805   -0.54068173     0.016678792  
    515000   0.051481154   -0.6511399      0.035016627   -0.53895136     0.0064372646 
    516000   0.051195468   -0.65182643     0.032687103   -0.54239567     0.0053306219 
    517000   0.050144423   -0.65247477     0.03535446    -0.54195221     0.011501313  
    518000   0.051133447   -0.65328057     0.036025009   -0.54060487     0.0067594114 
    519000   0.049985153   -0.65205953     0.035219645   -0.54191053    -0.00031669879
    520000   0.050620712   -0.65216342     0.03560895    -0.54067239    -0.00032487482
    521000   0.050518518   -0.65405988     0.034412058   -0.54391894    -0.00042124303
    522000   0.049813277   -0.65476733     0.036112645   -0.54398298     0.0022030575 
    523000   0.050955467   -0.65470378     0.03687651    -0.54144338     0.0021104684 
    524000   0.05086747    -0.65501229     0.035768569   -0.54299175     0.0074744472 
    525000   0.049540221   -0.65500647     0.035900938   -0.54484314     0.0043801627 
    526000   0.048946242   -0.65489856     0.034830552   -0.54669601     0.0089646557 
    527000   0.050979491   -0.65621647     0.035437653   -0.54435891     0.0076337157 
    528000   0.049447971   -0.65741287     0.036528586   -0.54676018     0.012822701  
    529000   0.053317931   -0.66033736     0.036655403   -0.54375666    -0.00036388309
    530000   0.052281228   -0.6612618      0.03642568    -0.54646487     0.0060183665 
    531000   0.051480921   -0.66045905     0.037149828   -0.54613766     0.011192987  
    532000   0.052182852   -0.65914731     0.035040013   -0.54588352     0.014967493  
    533000   0.051764306   -0.65955299     0.034987103   -0.54696952     0.019034119  
    534000   0.050574326   -0.658763       0.03405721    -0.54889324     0.0050971789 
    535000   0.051700662   -0.66123186     0.036344927   -0.54738597     0.0039429135 
    536000   0.051390122   -0.66340823     0.03578724    -0.55058554     0.0032453137 
    537000   0.050804801   -0.66216937     0.033487431   -0.5525239     -0.00029225668
    538000   0.05035663    -0.6627642      0.035255739   -0.55202225     0.0093896926 
    539000   0.050571249   -0.6630649      0.035027011   -0.55222996     0.013883387  
    540000   0.049511414   -0.66274413     0.03752626    -0.55099867     0.012804293  
    541000   0.050240904   -0.66309166     0.037216216   -0.55056271     0.019192973  
    542000   0.051619904   -0.66363668     0.035803744   -0.55045303     0.03006397   
    543000   0.050214636   -0.66368168     0.034423231   -0.55398509     0.020667702  
    544000   0.050000956   -0.66257792     0.03539867    -0.5522262      0.0067923293 
    545000   0.049194797   -0.66472251     0.037297556   -0.55368037     0.0021967794 
    546000   0.049564125   -0.66437271     0.035808112   -0.55426638     0.011727221  
    547000   0.049789084   -0.66621902     0.036032388   -0.55555118     0.013587734  
    548000   0.04861027    -0.66667978     0.037138795   -0.55667262     0.0089770402 
    549000   0.050231931   -0.66725293     0.036534625   -0.55541902     0.014835407  
    550000   0.050726898   -0.66713246     0.036475946   -0.55461525     0.015701928  
    551000   0.052074715   -0.66691838     0.034528256   -0.55432844     0.0090543393 
    552000   0.050647614   -0.66615156     0.034627842   -0.55560131     0.0086173023 
    553000   0.050506419   -0.66753525     0.035575891   -0.55624861     0.0094935571 
    554000   0.04928113    -0.666732       0.03543904    -0.55741896     0.0018755597 
    555000   0.049467968   -0.66654323     0.033688998   -0.55870016     0.0097062665 
    556000   0.050310632   -0.6693186      0.035107099   -0.55879424    -0.0013791031 
    557000   0.051639894   -0.66739384     0.035011174   -0.5549728      0.010847472  
    558000   0.049712699   -0.6673427      0.035302101   -0.55751966     0.0075062431 
    559000   0.049755136   -0.66709631     0.033770873   -0.55874088     0.020063314  
    560000   0.048420678   -0.66825113     0.034262537   -0.56140443    -0.001450687  
    561000   0.052129505   -0.67012409     0.03431209    -0.55766819     0.025924777  
    562000   0.04933752    -0.67029719     0.036232974   -0.56010568     0.010661592  
    563000   0.050024571   -0.66934609     0.036123604   -0.55823404     0.01300507   
    564000   0.049970894   -0.67031145     0.036147557   -0.55925591     0.0092615724 
    565000   0.051569324   -0.66903422     0.035646129   -0.55608401     0.017580601  
    566000   0.052473768   -0.67199186     0.038657364   -0.55467463     0.0051628133 
    567000   0.052001814   -0.66985244     0.035525271   -0.55637477     0.0019274924 
    568000   0.051209224   -0.67083086     0.036499498   -0.55756708    -0.0018911031 
    569000   0.049888318   -0.66982183     0.034659415   -0.56037822     0.0027311012 
    570000   0.050210371   -0.67083582     0.034634698   -0.56093416     0.0083965713 
    571000   0.049010286   -0.67014265     0.036196755   -0.56047789     0.0092502613 
    572000   0.049286398   -0.67016349     0.033666425   -0.56261516     0.0087324189 
    573000   0.051328462   -0.67272535     0.035470212   -0.56031212     0.011507261  
    574000   0.050749408   -0.67205842     0.034845279   -0.56113814     0.0042876889 
    575000   0.048999313   -0.67023465     0.036332013   -0.56045108     0.015542762  
    576000   0.050826624   -0.67259574     0.034059278   -0.56234571     0.01132616   
    577000   0.051159029   -0.6726259      0.035090255   -0.56084661     0.014920442  
    578000   0.049797009   -0.67290839     0.035717392   -0.56254368     0.021624934  
    579000   0.05002374    -0.67392597     0.033845974   -0.5650928      0.0094438142 
    580000   0.050789353   -0.67382618     0.035062406   -0.5626289      0.01235644   
    581000   0.050878131   -0.67335752     0.034541078   -0.56254848     0.01151239   
    582000   0.049781627   -0.67367239     0.034727623   -0.5643205      0.014666715  
    583000   0.048811328   -0.67346239     0.035480477   -0.56481215     0.0030124435 
    584000   0.049714187   -0.67693339     0.036303204   -0.56610701     0.019157648  
    585000   0.050404785   -0.67575404     0.034653196   -0.56554245     0.02974231   
    586000   0.052114238   -0.67634495     0.036648156   -0.56157587     0.013326184  
    587000   0.050735208   -0.67825765     0.037447086   -0.56475685     0.020743011  
    588000   0.050500338   -0.68049357     0.03647124    -0.56832069     0.013102404  
    589000   0.051271777   -0.68170562     0.034277142   -0.57057043     0.017101946  
    590000   0.051243736   -0.6819095      0.034272479   -0.570821       0.018171271  
    591000   0.049479485   -0.68096624     0.034811127   -0.57198377     0.0038133653 
    592000   0.050398389   -0.68367297     0.03470803    -0.57341613     0.019398131  
    593000   0.050300141   -0.68378942     0.034942192   -0.57344569     0.01666207   
    594000   0.053693673   -0.68527587     0.035213298   -0.56957402     0.017174921  
    595000   0.051554443   -0.68589515     0.035382119   -0.57323126     0.002037902  
    596000   0.049410026   -0.68607254     0.035869024   -0.57613629     0.0094777238 
    597000   0.050789235   -0.68602359     0.035229574   -0.57465931     0.022320718  
    598000   0.050951078   -0.68683802     0.037185907   -0.5732748      0.02055603   
    599000   0.049596797   -0.68815949     0.036203988   -0.5776083      0.015150797  
    600000   0.051506659   -0.68702722     0.035216154   -0.57460092     0.00042476319
    601000   0.051586004   -0.68645935     0.03493898    -0.57419129     0.00072557035
    602000   0.051267562   -0.68876871     0.037291043   -0.57462594     0.0043071983 
    603000   0.048562679   -0.68945637     0.036247442   -0.58041191    -0.0051405744 
    604000   0.0504241     -0.68958106     0.035976692   -0.57801702     0.0093986817 
    605000   0.051212921   -0.68835048     0.03505072    -0.57652993     0.01794309   
    606000   0.048981178   -0.68909455     0.035040995   -0.58062919     0.0056989793 
    607000   0.050384385   -0.68903538     0.035709999   -0.57779756     0.010604574  
    608000   0.051944568   -0.68870058     0.034262397   -0.5765716      0.013899935  
    609000   0.049604593   -0.68884896     0.035819942   -0.57867014     0.0042890093 
    610000   0.051253688   -0.69073617     0.035849731   -0.57805551     0.010610298  
    611000   0.049706379   -0.69037916     0.033197915   -0.58266978    -0.0022091508 
    612000   0.049643056   -0.69101551     0.035542427   -0.58105654     0.0090196705 
    613000   0.051323802   -0.6890621      0.035599107   -0.57652696     0.018503111  
    614000   0.049814427   -0.69055399     0.036999765   -0.57888079     0.019595232  
    615000   0.050033946   -0.69102375     0.034751898   -0.58126936     0.013873812  
    616000   0.051910602   -0.69025069     0.034186473   -0.57824855     0.0067068209 
    617000   0.049877693   -0.69005994     0.035301098   -0.57999057     0.009574899  
    618000   0.050165453   -0.69012439     0.035735989   -0.57918877     0.0075768793 
    619000   0.050871805   -0.69169929     0.036000656   -0.57944015     0.019451776  
    620000   0.049819517   -0.69211457     0.036518289   -0.58091522    -0.001725702  
    621000   0.049654693   -0.69217705     0.036681359   -0.5810617      0.015559841  
    622000   0.049311041   -0.69085884     0.035355715   -0.58158428     0.013573041  
    623000   0.049765966   -0.69206151     0.034582334   -0.58287839     0.00068718244
    624000   0.050405525   -0.69246836     0.036030553   -0.5808783      0.013670874  
    625000   0.049734021   -0.69150365     0.035384742   -0.58156601     0.0085839786 
    626000   0.051514887   -0.69186484     0.035528241   -0.57911412     0.0072824945 
    627000   0.052215149   -0.69318922     0.035707519   -0.5792095      0.0059163368 
    628000   0.050696566   -0.69436621     0.036274148   -0.58209627     0.0096872585 
    629000   0.050914499   -0.6938705      0.036607895   -0.58094013     0.0029317308 
    630000   0.050681969   -0.69311008     0.036783617   -0.58035255     0.0053594764 
    631000   0.050813168   -0.69422923     0.03481253    -0.58324612     0.0039538641 
    632000   0.050055705   -0.69385543     0.035046609   -0.5837737      0.015368091  
    633000   0.050803645   -0.69399129     0.036479672   -0.58135531     0.0072921673 
    634000   0.05082812    -0.69514763     0.034780801   -0.58417384     0.01145042   
    635000   0.051834084   -0.69402345     0.035722862   -0.58059962     0.0079164409 
    636000   0.05085738    -0.69457657     0.036720867   -0.58161885     0.01011973   
    637000   0.05058177    -0.69526429     0.036542062   -0.58289853     0.0071597838 
    638000   0.05137272    -0.69364988     0.03454877    -0.58209174     0.0059495642 
    639000   0.048917484   -0.69519939     0.035028359   -0.58684214     0.0055656825 
    640000   0.05032775    -0.69515783     0.037912878   -0.58180203     0.0079959215 
    641000   0.050497916   -0.69540002     0.036043798   -0.58365822     0.0059978925 
    642000   0.052297015   -0.6954245      0.037039978   -0.57998961    -0.00047843576
    643000   0.051617557   -0.69563256     0.036284273   -0.58197191     0.0014891066 
    644000   0.049354071   -0.69542814     0.03551173    -0.58593306    -0.0036658002 
    645000   0.050179267   -0.69651793     0.035226881   -0.58607071     0.0057040241 
    646000   0.049373629   -0.69775385     0.035316715   -0.58842447    -0.0025292219 
    647000   0.050870504   -0.69676748     0.033807188   -0.58670377     0.0022309482 
    648000   0.051092354   -0.69691952     0.035841458   -0.58448898     0.0018893272 
    649000   0.049789791   -0.69559318     0.036489093   -0.58446759     0.0019317918 
    650000   0.052004504   -0.69606475     0.035592464   -0.58251585     0.010341264  
    651000   0.050351631   -0.6969816      0.034148316   -0.58735457    -0.005463854  
    652000   0.049817073   -0.69956829     0.036093475   -0.58879741     0.014403272  
    653000   0.052423562   -0.69984649     0.036051218   -0.58521066     0.0030085691 
    654000   0.051273831   -0.70268934     0.035611463   -0.59021675    -0.0089306806 
    655000   0.051019267   -0.70311264     0.035918199   -0.59071492    -0.0049224919 
    656000   0.049995577   -0.70218801     0.035149531   -0.5920935      0.011538647  
    657000   0.05095059    -0.70312366     0.03549223    -0.59125485     0.0067795233 
    658000   0.049753997   -0.70383648     0.036616753   -0.59263689     0.006870692  
    659000   0.049668357   -0.70678112     0.035482335   -0.59684432     0.013639828  
    660000   0.048691752   -0.70665588     0.036908276   -0.5967571     -0.0010333917 
    661000   0.049359835   -0.70789101     0.034670609   -0.59922842     0.0095763685 
    662000   0.051624436   -0.70910519     0.037680362   -0.59403813     0.010982359  
    663000   0.049755094   -0.70752835     0.036155063   -0.59678879     0.0078121487 
    664000   0.050697941   -0.70871349     0.035756958   -0.59695868    -0.003332835  
    665000   0.049583042   -0.70830341     0.035684916   -0.59829192     0.014055792  
    666000   0.051129553   -0.70968564     0.036023237   -0.59701755     0.0048713546 
    667000   0.051419365   -0.70914504     0.033875395   -0.59819036     0.012159345  
    668000   0.051231563   -0.70953899     0.036155862   -0.59658536     0.013315457  
    669000   0.050673926   -0.7090069      0.037136774   -0.59590827     0.0078555917 
    670000   0.052040217   -0.70938687     0.035925225   -0.59545168     0.0097647465 
    671000   0.050218443   -0.71035258     0.036102965   -0.59897055     0.0025648805 
    672000   0.051214433   -0.70932833     0.034095014   -0.59846123     0.011894926  
    673000   0.051325889   -0.71437557     0.035248978   -0.60218742     0.005933038  
    674000   0.0510013     -0.71533307     0.036496728   -0.60238375     0.00053307281
    675000   0.051462028   -0.71515701     0.035667424   -0.60234635     0.015119955  
    676000   0.049936796   -0.71417764     0.035372077   -0.6039487      0.0051573053 
    677000   0.050333292   -0.71372822     0.033903352   -0.60437364     0.0040654629 
    678000   0.051224871   -0.71254191     0.033393219   -0.60236096     0.00039312944
    679000   0.048760168   -0.71231433     0.036595981   -0.60262529    -0.0010874729 
    680000   0.048589411   -0.71167316     0.03564878    -0.60318728     0.0032929069 
    681000   0.050990847   -0.71296193     0.034735605   -0.6017894      0.0065532713 
    682000   0.049548315   -0.7126676      0.036911908   -0.60148117     0.0016627126 
    683000   0.051079566   -0.7127714      0.036999456   -0.59920203     0.013313792  
    684000   0.050261975   -0.71321436     0.03642695    -0.60144309     0.0066613225 
    685000   0.04990103    -0.71104585     0.036757654   -0.59948495     0.0079235991 
    686000   0.050206009   -0.71040302     0.037223508   -0.59791909     0.0024113854 
    687000   0.047641785   -0.71078711     0.035147527   -0.60422302     0.0005888981 
    688000   0.050842774   -0.71188807     0.034755215   -0.6009179      0.0033577927 
    689000   0.050199088   -0.71382311     0.036231928   -0.60234113    -0.0015016875 
    690000   0.04944285    -0.71361641     0.035391026   -0.60410896     0.017703904  
    691000   0.050106491   -0.71375737     0.03739045    -0.60125567     0.010188392  
    692000   0.050809085   -0.71284192     0.037201255   -0.59947621     0.013293747  
    693000   0.049715351   -0.71277131     0.034518408   -0.60372798     0.012478747  
    694000   0.049826417   -0.71281024     0.034920748   -0.60319808     0.0023741782 
    695000   0.050230616   -0.71124161     0.036286228   -0.59965807     0.0097727266 
    696000   0.050473719   -0.71154096     0.035416557   -0.60046267     0.0043904114 
    697000   0.05170537    -0.71257242     0.036799465   -0.59826494     0.0032672855 
    698000   0.050413683   -0.71263198     0.036587281   -0.60047296    -0.00035334589
    699000   0.051386662   -0.71417096     0.034634813   -0.60250588    -0.00086842395
    700000   0.049766596   -0.71380156     0.03507355    -0.60412628    -0.00089536079
    701000   0.050698101   -0.71334494     0.036468918   -0.60087794     0.018869125  
    702000   0.050454388   -0.71443025     0.038814252   -0.59998324     0.0075832589 
    703000   0.050176782   -0.71435026     0.03592802    -0.60320562     0.001920501  
    704000   0.052954493   -0.71586906     0.039184455   -0.59730412     0.00093026435
    705000   0.052393927   -0.71638897     0.036483306   -0.60136547    -2.076452e-05 
    706000   0.04961491    -0.71648247     0.037601231   -0.60450689     0.0098760822 
    707000   0.051442968   -0.71652068     0.03753413    -0.60187188    -0.019325654  
    708000   0.052443549   -0.7160743      0.036785798   -0.60067393     0.01737716   
    709000   0.050615869   -0.71692582     0.037420161   -0.60363084     0.0095005574 
    710000   0.05188686    -0.71672679     0.035313884   -0.60363283     0.020939012  
    711000   0.050738072   -0.71715079     0.037612993   -0.60347979     0.011536823  
    712000   0.052236154   -0.71786771     0.036675412   -0.60288861     0.012023035  
    713000   0.050566836   -0.71682233     0.037029679   -0.60399133     0.010060077  
    714000   0.051663907   -0.7177385      0.038349151   -0.60194349     0.014308541  
    715000   0.050067011   -0.71750386     0.036613278   -0.60583852     0.014574225  
    716000   0.050563071   -0.71781739     0.037886932   -0.60413478     0.0044129404 
    717000   0.052312051   -0.71882593     0.034225599   -0.60618287    -0.00010358283
    718000   0.051421693   -0.71831097     0.033579009   -0.60764918     0.016045554  
    719000   0.048004297   -0.71882514     0.036696694   -0.61016846     0.0059036191 
    720000   0.051268324   -0.71874724     0.038060053   -0.60383432     0.014608739  
    721000   0.052235044   -0.7190122      0.03672804    -0.60398214     0.011394899  
    722000   0.054062258   -0.72123444     0.03725379    -0.60293958     0.029694835  
    723000   0.052099041   -0.72161854     0.037848448   -0.60567195     0.027767948  
    724000   0.052304058   -0.72056155     0.037480419   -0.60467567     0.012044108  
    725000   0.05208901    -0.72136499     0.036700902   -0.60658098     0.0075444072 
    726000   0.051631132   -0.72176962     0.038252436   -0.60612045     0.01165602   
    727000   0.050603526   -0.72083011     0.036545552   -0.60842824     0.017484282  
    728000   0.051857048   -0.72246175     0.036389999   -0.60833637     0.0040938803 
    729000   0.05167871    -0.72260227     0.034215312   -0.6109189      0.018665175  
    730000   0.051866577   -0.72013606     0.03890283    -0.60348356     0.017933921  
    731000   0.052651956   -0.72148567     0.037142149   -0.60541654     0.026038088  
    732000   0.051217368   -0.72141391     0.037507174   -0.60713024     0.016430619  
    733000   0.052922272   -0.72396152     0.03826119    -0.60636814     0.012890229  
    734000   0.050641839   -0.72254301     0.037182964   -0.6094463      0.01622755   
    735000   0.051899995   -0.72475411     0.037368963   -0.60958538     0.0053142881 
    736000   0.050035888   -0.72460154     0.035478887   -0.61411724    -0.0090027869 
    737000   0.050627991   -0.72413164     0.037168517   -0.61107013    -0.0067896047 
    738000   0.049734477   -0.7235897      0.033931845   -0.61510427    -0.0056766863 
    739000   0.049393472   -0.72435015     0.038965576   -0.61134216     0.0051026655 
    740000   0.050022809   -0.72309072     0.037997543   -0.61010738     0.018610286  
    741000   0.051189308   -0.72458305     0.037591527   -0.6102571      0.0052891982 
    742000   0.050139039   -0.7234501      0.037281892   -0.61100817     0.010003433  
[...]
   5293000   0.052781808   -0.8074612      0.043418315   -0.68492125     0.020523466  
   5294000   0.050836868   -0.80677938     0.046520506   -0.68405277     0.0027440697 
   5295000   0.053454151   -0.80347053     0.041970446   -0.68137059     0.024469976  
   5296000   0.052942473   -0.80669551     0.044927496   -0.68240554    -0.0011564356 
   5297000   0.050955432   -0.80815415     0.045944585   -0.68582573     0.0085384688 
   5298000   0.051654679   -0.8088302      0.044837217   -0.68656095     0.008867443  
   5299000   0.051547893   -0.80700649     0.044043072   -0.68569146     0.013528184  
   5300000   0.051664067   -0.80862526     0.045985364   -0.6851938      0.0065869083 
   5301000   0.05380456    -0.80648526     0.045020352   -0.68081013     0.0027127    
   5302000   0.052749685   -0.80843851     0.044091488   -0.68527354     0.029395145  
   5303000   0.052397304   -0.80927005     0.045893903   -0.6848309      0.015732845  
   5304000   0.050811511   -0.8091091      0.044248646   -0.68869236    -0.00056197429
   5305000   0.050498706   -0.80624196     0.043407133   -0.68713564     0.0099465119 
   5306000   0.051407097   -0.80621812     0.043683198   -0.68547403     0.022089046  
   5307000   0.050611491   -0.80559981     0.045218055   -0.6845135      0.0031075114 
   5308000   0.051188255   -0.80670401     0.042850795   -0.68712037     0.0090397143 
   5309000   0.05169429    -0.80953692     0.04444717    -0.68759834     0.030492398  
   5310000   0.050559223   -0.80841675     0.046496809   -0.68613004     0.0056227585 
   5311000   0.051064603   -0.80822405     0.045749348   -0.68592722     0.010218904  
   5312000   0.05154991    -0.80913963     0.04532453    -0.68654012     0.012999801  
   5313000   0.05249041    -0.80848269     0.043939827   -0.68585805     0.017976516  
   5314000   0.051067571   -0.80960506     0.04250719    -0.69054594     0.0095082653 
   5315000   0.051100116   -0.80658138     0.046305982   -0.68367467     0.026533053  
   5316000   0.051612663   -0.8055983      0.044049135   -0.68418012     0.031297581  
   5317000   0.051524893   -0.80694635     0.044515299   -0.68519358     0.019956453  
   5318000   0.051243182   -0.80839385     0.046014588   -0.68556408     0.010876989  
   5319000   0.050029259   -0.80705854     0.043041655   -0.68902141    -0.0015207354 
   5320000   0.051812507   -0.80609945     0.043789375   -0.68464145     0.0024925648 
   5321000   0.048541728   -0.8081523      0.045282961   -0.69010372     0.012366204  
   5322000   0.050764551   -0.80747215     0.043080213   -0.68829424     0.0022361371 
   5323000   0.048452871   -0.80742382     0.0438423     -0.6909491      0.020364041  
   5324000   0.051189322   -0.80785014     0.043926972   -0.68718872     0.010451005  
   5325000   0.049578027   -0.80811632     0.043836613   -0.68996065    -0.0018637001 
   5326000   0.050306773   -0.80816664     0.043373514   -0.68938165     0.01705491   
   5327000   0.052542969   -0.80823869     0.042665296   -0.68680979     0.018409019  
   5328000   0.052877205   -0.80664847     0.044273119   -0.68311071     0.036906474  
   5329000   0.053167879   -0.80427777     0.044761744   -0.67981566     0.036999746  
   5330000   0.051886038   -0.80876852     0.043669295   -0.68732038     0.028587315  
   5331000   0.051195801   -0.80546643     0.043893005   -0.68482927     0.03975894   
   5332000   0.050703371   -0.80640494     0.04402233    -0.68637662     0.016553718  
   5333000   0.052804049   -0.80641155     0.04458112    -0.68267546     0.018960535  
   5334000   0.050864392   -0.80862646     0.044642474   -0.68773662     0.020260301  
   5335000   0.052844424   -0.80370209     0.042045458   -0.68244114     0.036579309  
   5336000   0.050492671   -0.80767015     0.04459285    -0.68738716     0.021017457  
   5337000   0.05299365    -0.80936557     0.044590495   -0.68533588     0.029573718  
   5338000   0.052734303   -0.80774702     0.044751488   -0.68394511     0.011041177  
   5339000   0.049695529   -0.80466712     0.045731092   -0.68444083     0.022237908  
   5340000   0.051577383   -0.80865639     0.043513021   -0.6878272      0.0059784568 
   5341000   0.050512056   -0.80666868     0.046790763   -0.68415872     0.020501181  
   5342000   0.051000189   -0.8065495      0.042680986   -0.68741759     0.010484071  
   5343000   0.050822012   -0.80527623     0.043657219   -0.68543517     0.028988153  
   5344000   0.053075421   -0.80536523     0.044837168   -0.6809663      0.0085113264 
   5345000   0.053918303   -0.8063695      0.04539077    -0.68015346     0.020056791  
   5346000   0.050878689   -0.80561973     0.044636692   -0.68471424     0.01466535   
   5347000   0.050558724   -0.80573655     0.044519883   -0.68542751     0.0073317227 
   5348000   0.051696649   -0.80867358     0.045455049   -0.68572359     0.020673827  
   5349000   0.052523198   -0.80388556     0.045812197   -0.67933939     0.0035095795 
   5350000   0.054051156   -0.80411955     0.043276772   -0.67981836     0.019237644  
   5351000   0.051778761   -0.80820606     0.044301971   -0.68628606     0.00090328156
   5352000   0.052902271   -0.80660181     0.043069003   -0.68423059     0.014716579  
   5353000   0.051417369   -0.80667253     0.044210306   -0.68538593     0.017776743  
   5354000   0.051656571   -0.80822095     0.044355267   -0.68643082    -0.0043515185 
   5355000   0.053184867   -0.80710741     0.045441893   -0.68193969     0.01043371   
   5356000   0.051570127   -0.80760888     0.046118098   -0.6841855      0.018398427  
   5357000   0.051299486   -0.80672479     0.045813377   -0.68401183     0.025587284  
   5358000   0.050753022   -0.80606568     0.045133409   -0.68485185     0.028690003  
   5359000   0.050396406   -0.80632574     0.042525191   -0.68825471     0.014168014  
   5360000   0.051239474   -0.80702269     0.044730094   -0.68548297     0.011642961  
   5361000   0.0525185     -0.80785431     0.045074875   -0.68405251     0.012372847  
   5362000   0.051986021   -0.80645747     0.045036098   -0.68349265     0.015562299  
   5363000   0.050829321   -0.80723149     0.044845535   -0.68619116     0.036003805  
   5364000   0.050365506   -0.8068053      0.043214808   -0.68809097     0.021934472  
   5365000   0.050840382   -0.80798574     0.044738202   -0.68703616     0.0064839123 
   5366000   0.050040655   -0.80783126     0.044817964   -0.68800074     0.0277744    
   5367000   0.050855283   -0.80897499     0.041506902   -0.69123437     0.028696981  
   5368000   0.051287231   -0.80649441     0.042875318   -0.68673788     0.025894995  
   5369000   0.051686125   -0.80977183     0.045791714   -0.68650094     0.027564015  
   5370000   0.050345256   -0.80852159     0.047795124   -0.6852573      0.015545724  
   5371000   0.049299322   -0.80807603     0.046667541   -0.68750722     0.045763677  
   5372000   0.052035329   -0.80618934     0.044811732   -0.68337497     0.019508522  
   5373000   0.050235181   -0.80770303     0.043749223   -0.68864965     0.045527877  
   5374000   0.049515602   -0.80780072     0.045098502   -0.68847673     0.030073256  
   5375000   0.050025274   -0.80878241     0.046957981   -0.68683493     0.010362664  
   5376000   0.050030438   -0.8086398      0.045625655   -0.6880169      0.011792521  
   5377000   0.051207927   -0.80824854     0.045826913   -0.68565929     0.023402718  
   5378000   0.052098332   -0.8050227      0.04474172    -0.6821839      0.027763958  
   5379000   0.051638816   -0.80590305     0.044419795   -0.68407501     0.021729351  
   5380000   0.051870184   -0.80775696     0.043996577   -0.6860053      0.011746555  
   5381000   0.052235298   -0.80699735     0.043627162   -0.68506779     0.034735842  
   5382000   0.0506784     -0.80777419     0.047437323   -0.68436831     0.025312264  
   5383000   0.05029369    -0.80870119     0.046278567   -0.68703076     0.022557237  
   5384000   0.050863461   -0.80979115     0.045233465   -0.68831171     0.031111096  
   5385000   0.050589888   -0.80861701     0.044626764   -0.68815437     0.027772394  
   5386000   0.051210281   -0.80572556     0.043507631   -0.68545207     0.021958464  
   5387000   0.051275198   -0.80706321     0.043463819   -0.68673622     0.0088852706 
   5388000   0.051165788   -0.80770893     0.043554117   -0.68745564     0.021258168  
   5389000   0.052893991   -0.80683172     0.044283491   -0.68325843     0.012363601  
   5390000   0.052690987   -0.80680254     0.04476639    -0.68305066     0.00079032317
   5391000   0.050965622   -0.80635283     0.044882209   -0.68507151     0.0038481164 
   5392000   0.050335603   -0.80809158     0.046701457   -0.68593543     0.005629918  
   5393000   0.050536839   -0.8070892      0.04197225    -0.6893606      0.00048454002
   5394000   0.051180756   -0.8084005      0.043122229   -0.68855666     0.016944207  
   5395000   0.051675653   -0.80637086     0.043054538   -0.68585285     0.018728972  
   5396000   0.051257741   -0.80455558     0.044980473   -0.6827381      0.016801814  
   5397000   0.052013676   -0.80472572     0.044300542   -0.682455       0.0050294496 
   5398000   0.049547772   -0.80487353     0.043493726   -0.6871061      0.01776127   
   5399000   0.051466796   -0.80860473     0.043870206   -0.68758414     0.012555898  
   5400000   0.051949353   -0.80611153     0.04334898    -0.68488879     0.0091663453 
   5401000   0.050740406   -0.80618674     0.043433362   -0.68669187     0.0049019027 
   5402000   0.051693702   -0.81075429     0.045280902   -0.68798286     0.0081201532 
   5403000   0.051368028   -0.80499357     0.043611053   -0.68438019     0.010206015  
   5404000   0.049843395   -0.80800154     0.044265705   -0.68901898     0.0061600314 
   5405000   0.052204571   -0.80702303     0.045107114   -0.68365958     0.001326328  
   5406000   0.050626471   -0.80724096     0.045167773   -0.68618248    -0.0008497749 
   5407000   0.051739871   -0.80781267     0.046033822   -0.68421911    -0.0046213504 
   5408000   0.052947881   -0.80599797     0.044667442   -0.68195995     0.012767095  
   5409000   0.05011953    -0.8064835      0.044075122   -0.68727759     0.02166231   
   5410000   0.052490546   -0.80648522     0.04420002    -0.68360017     0.0050017194 
   5411000   0.050397486   -0.80656438     0.043039642   -0.68797728     0.0065686124 
   5412000   0.049666651   -0.80721669     0.044712677   -0.6880521     -0.0078353647 
   5413000   0.051620559   -0.8091891      0.043374038   -0.68843418     0.01293052   
   5414000   0.051108262   -0.8091985      0.044414658   -0.68817091     0.012422337  
   5415000   0.049523429   -0.80633302     0.044658442   -0.68743736     0.00074982478
   5416000   0.049932302   -0.80778794     0.043756983   -0.68918082     0.0115068    
   5417000   0.052067419   -0.80536928     0.044818299   -0.68250024     0.0026456059 
   5418000   0.04901306    -0.80872726     0.044953358   -0.69030174     0.0023651051 
   5419000   0.049166859   -0.80630601     0.044849361   -0.68775394     0.0070779646 
   5420000   0.051780886   -0.80744574     0.04383835    -0.68598617     0.0086664404 
   5421000   0.051079725   -0.80849272     0.044119343   -0.68780322    -0.01040092   
   5422000   0.051940213   -0.80920969     0.043923901   -0.68742573     0.012987859  
   5423000   0.052068092   -0.80788843     0.042621875   -0.68721481     0.01921235   
   5424000   0.052537845   -0.80996743     0.044149464   -0.68706204     0.00037023932
   5425000   0.049410341   -0.80769446     0.043085516   -0.69054125     0.0031363606 
   5426000   0.049968972   -0.81010449     0.044641391   -0.690558      -0.017734019  
   5427000   0.052545225   -0.80854212     0.045204331   -0.6845708     -0.0099593584 
   5428000   0.050936589   -0.80907002     0.045563395   -0.68715104    -0.0030810498 
   5429000   0.051109163   -0.80610744     0.045345096   -0.68414806     0.027796212  
   5430000   0.052753671   -0.8087251      0.044834345   -0.6848113      0.0099960233 
   5431000   0.053061274   -0.80764294     0.044875182   -0.68322719     0.02201706   
   5432000   0.052162355   -0.80864879     0.04564677    -0.68480897    -0.015184894  
   5433000   0.051728939   -0.80764881     0.042914151   -0.68719131     0.0012207928 
   5434000   0.050006884   -0.80803697     0.044012588   -0.68906245     0.014556736  
   5435000   0.050517568   -0.8090165      0.044577773   -0.68871126     0.014697433  
   5436000   0.049086402   -0.80662772     0.04136332    -0.6916823      0.00024964555
   5437000   0.050445386   -0.80863724     0.044474995   -0.68854299    -0.012969728  
   5438000   0.051576428   -0.80772594     0.04696261    -0.6834486     -0.0030727738 
   5439000   0.050704199   -0.8083981      0.043675504   -0.68871536     0.005042561  
   5440000   0.050131844   -0.80721046     0.042833985   -0.68922722    -0.0093604246 
   5441000   0.051446052   -0.80712228     0.042840796   -0.6871622      0.0072793786 
   5442000   0.050333793   -0.80720964     0.045019519   -0.68673814    -0.0020513676 
   5443000   0.051660448   -0.80813763     0.045439091   -0.68525786    -0.0025672121 
   5444000   0.05051       -0.80588154     0.044416146   -0.68574928     0.032303058  
   5445000   0.050834653   -0.80808558     0.043609965   -0.68827283     0.027525103  
   5446000   0.052379097   -0.80697151     0.044010322   -0.68444323     0.037717858  
   5447000   0.051896245   -0.80834871     0.045294275   -0.68526029     0.030340378  
   5448000   0.052348436   -0.80663859     0.044831868   -0.68333473     0.01691953   
   5449000   0.052711847   -0.80808678     0.045449661   -0.68362036     0.016416094  
   5450000   0.05272201    -0.80732214     0.047157535   -0.68113261    -0.0009788498 
   5451000   0.051327003   -0.80821046     0.044210597   -0.68705903     0.012096565  
   5452000   0.051608339   -0.80552701     0.043780397   -0.68438405     0.01252553   
   5453000   0.051687429   -0.80561194     0.046083769   -0.68204705     0.025547183  
   5454000   0.05129024    -0.80712149     0.046240941   -0.68399482     0.0050153038 
   5455000   0.052202598   -0.80637014     0.045684232   -0.68243253     0.0073714945 
   5456000   0.050575357   -0.80738441     0.043077628   -0.68849269     0.0072122667 
   5457000   0.051198861   -0.80720864     0.045913308   -0.68454658     0.0084768489 
   5458000   0.052353058   -0.80727251     0.042984262   -0.68580933     0.0074377681 
   5459000   0.051028819   -0.80710475     0.043615277   -0.68699563     0.00094345145
   5460000   0.052647674   -0.80797508     0.044343435   -0.68471109     0.0054051941 
   5461000   0.049503189   -0.80653732     0.043509755   -0.68882068     0.0038610729 
   5462000   0.050724116   -0.8075391      0.044332879   -0.68716914     0.0077880847 
   5463000   0.05154662    -0.80849672     0.044890534   -0.68633614     0.0088985989 
   5464000   0.051916208   -0.80740003     0.046042728   -0.68353324    -0.0022148361 
   5465000   0.050494785   -0.80615452     0.044114925   -0.68634628     0.014447556  
   5466000   0.050204481   -0.80878756     0.043277416   -0.69025201    -0.0076291312 
   5467000   0.050628714   -0.8069165      0.041791921   -0.6892305     -0.0034206184 
   5468000   0.049713584   -0.80820157     0.04486737    -0.68881194     0.0037899091 
   5469000   0.050891479   -0.8094209      0.043386944   -0.68974599    -0.0030917788 
   5470000   0.050391067   -0.80661139     0.043563037   -0.68751052    -0.005397604  
   5471000   0.051499899   -0.80600882     0.046413181   -0.68239563     0.010222117  
   5472000   0.051443803   -0.80791416     0.046528448   -0.68426979     0.0051389933 
   5473000   0.051375271   -0.80865078     0.043484744   -0.68815284     0.0087342459 
   5474000   0.053126587   -0.80774755     0.046442077   -0.68166701     0.011116688  
   5475000   0.0524197     -0.80710351     0.044693611   -0.68383108     0.023915585  
   5476000   0.050465809   -0.80432723     0.045531186   -0.68314617     0.021852482  
   5477000   0.051552981   -0.80763396     0.043800182   -0.6865542     -0.0016909935 
   5478000   0.052167952   -0.80597865     0.045414731   -0.68236247     0.0010684731 
   5479000   0.052339914   -0.80865752     0.044517435   -0.68568087     0.0054416235 
   5480000   0.053508992   -0.80766739     0.043890207   -0.68356548     0.016294269  
   5481000   0.051186714   -0.80575502     0.044206068   -0.68481842     0.016124806  
   5482000   0.050914304   -0.8053827      0.044673184   -0.68438733    -0.0096387158 
   5483000   0.05098582    -0.80647081     0.046118768   -0.68392265     0.0037111843 
   5484000   0.05258188    -0.80530383     0.044573161   -0.68190873     0.007651593  
   5485000   0.052235962   -0.807195       0.042737713   -0.6861539      0.011089978  
   5486000   0.049742551   -0.80826486     0.04264987    -0.69104931     0.0076965878 
   5487000   0.050700193   -0.80761367     0.042514982   -0.68909746     0.0048965786 
   5488000   0.051699953   -0.8080127      0.045452512   -0.68506029    -0.0018388936 
   5489000   0.052356162   -0.80944785     0.043484772   -0.6874795      0.001377261  
   5490000   0.052170006   -0.80553132     0.041842764   -0.68548404     0.0044879546 
   5491000   0.050730137   -0.80638258     0.0437609     -0.68657557     0.0098692719 
   5492000   0.05022265    -0.80835634     0.043046675   -0.6900243     -0.0033805332 
   5493000   0.049025635   -0.80692917     0.044980299   -0.68845786     0.017669444  
   5494000   0.050324967   -0.80817951     0.044230648   -0.68851011     0.015205373  
   5495000   0.052633628   -0.80652558     0.044414965   -0.68321111     0.0067577022 
   5496000   0.055180776   -0.80669132     0.045410191   -0.67856336     0.014773953  
   5497000   0.052258529   -0.80712711     0.043436013   -0.68535388    -0.0070685866 
   5498000   0.05293691    -0.80893379     0.0428917     -0.68668795     0.0038375215 
   5499000   0.053491819   -0.80771575     0.045896523   -0.68163327    -0.010064049  
   5500000   0.051300016   -0.80598189     0.046632335   -0.68244918     0.0045689707 
Loop time of 1973.16 on 8 procs for 5000000 steps with 1550 atoms

Performance: 218938.306 tau/day, 2534.008 timesteps/s, 3.928 Matom-step/s
94.4% CPU use with 8 MPI tasks x 1 OpenMP threads

MPI task timing breakdown:
Section |  min time  |  avg time  |  max time  |%varavg| %total
---------------------------------------------------------------
Pair    | 230.68     | 310.17     | 366.93     | 246.3 | 15.72
Bond    | 43.622     | 55.094     | 60.171     |  74.6 |  2.79
Neigh   | 1.3907     | 1.3917     | 1.3931     |   0.1 |  0.07
Comm    | 416.75     | 476.94     | 566.02     | 219.5 | 24.17
Output  | 17.125     | 17.352     | 17.538     |   3.3 |  0.88
Modify  | 1092.9     | 1095.3     | 1096.6     |   3.9 | 55.51
Other   |            | 16.9       |            |       |  0.86

Nlocal:         193.75 ave         345 max          98 min
Histogram: 2 1 1 0 1 1 1 0 0 1
Nghost:        610.875 ave         701 max         467 min
Histogram: 1 0 1 0 0 0 3 1 0 2
Neighs:              0 ave           0 max           0 min
Histogram: 8 0 0 0 0 0 0 0 0 0
FullNghs:         8021 ave       20312 max        2481 min
Histogram: 2 1 2 1 1 0 0 0 0 1

Total # of neighbors = 64168
Ave neighs/atom = 41.39871
Ave special neighs/atom = 2.1612903
Neighbor list builds = 1961
Dangerous builds = 0

# Write data for deformation

write_restart ${Dir}/${file6_name}
write_restart /home/franvt/GitRepos/molDynLammps/polymericGels/gel-bonds-1/data/0.050.30.05500-2026-01-21-161335/${file6_name}
write_restart /home/franvt/GitRepos/molDynLammps/polymericGels/gel-bonds-1/data/0.050.30.05500-2026-01-21-161335/data.hydrogel
System init for write_restart ...
WARNING: Using a manybody potential with bonds/angles/dihedrals and special_bond exclusions (src/pair.cpp:250)
Hybrid pair style last /omp style table/omp
Last active /omp style is angle_style harmonic/omp
Total wall time: 0:35:10
