LAMMPS (22 Jul 2025)
OMP_NUM_THREADS environment is not set. Defaulting to 1 thread.
  using 1 OpenMP thread(s) per MPI task
package omp 0
using multi-threaded neighbor list subroutines
# Input Script of lammps for assembly simulation of polimeric network.
# Main code is based on: https://github.com/PipeB62/Hydrogel-Simulation
# Patchy particles are with bond style.

# Felipe Benavides modified by Fco. Vazquez

# Initialization
units lj
dimension 3
boundary p p p

# Styles of atoms and that stuff
atom_style full
bond_style harmonic
angle_style harmonic
pair_style hybrid/overlay zero 0.0 lj/cut/omp 1.12 table/omp linear 5000000 threebody/table

newton on

# Create simulaiton box
region simulation_box block -$L $L -$L $L -$L $L
region simulation_box block -9.796741 $L -$L $L -$L $L
region simulation_box block -9.796741 9.796741 -$L $L -$L $L
region simulation_box block -9.796741 9.796741 -9.796741 $L -$L $L
region simulation_box block -9.796741 9.796741 -9.796741 9.796741 -$L $L
region simulation_box block -9.796741 9.796741 -9.796741 9.796741 -9.796741 $L
region simulation_box block -9.796741 9.796741 -9.796741 9.796741 -9.796741 9.796741
# N-atom-types region-ID keyword value Is necesesary the extra/special/per/atom (# of special neighbors per atom)
create_box 4 simulation_box     bond/types 1     angle/types 2     extra/bond/per/atom 10     extra/angle/per/atom 6     extra/special/per/atom 10
Created orthogonal box = (-9.796741 -9.796741 -9.796741) to (9.796741 9.796741 9.796741)
  2 by 2 by 2 MPI processor grid

# Atom types
mass 1 1.0      # CL
mass 2 1.0      # MO
mass 3 1.0      # PA
mass 4 1.0      # PB

# Coefficients
include potential.in
# Script with the pair-wise interaction and bonds between particles

bond_coeff 1 100.0 0.45
angle_coeff 1 100.0 180
angle_coeff 2 100.0 109.4712
pair_coeff 1 3 zero 0.5
pair_coeff 1 4 zero 0.5
pair_coeff 2 3 zero 0.5
pair_coeff 2 4 zero 0.5
pair_coeff 3 3 zero 0.5
pair_coeff 1 1 lj/cut/omp 1.0 1.0 1.12
pair_coeff 2 2 lj/cut/omp 1.0 1.0 1.12
pair_coeff 1 2 lj/cut/omp 1.0 1.0 1.12
pair_coeff 3 4 table/omp sysFiles/pachTab.table POT 0.6 # sw/omp sysFiles/patchyPot.sw NULL NULL PA PB
Reading pair table potential file sysFiles/pachTab.table with DATE: 2024-07-08
WARNING: 7 of 1000000 force values in table POT are inconsistent with -dE/dr.
WARNING:  Should only be flagged at inflection points (src/pair_table.cpp:469)
pair_coeff 4 4 table/omp sysFiles/pachTab.table POT 0.6 # sw/omp sysFiles/patchyPot.sw NULL NULL PA PB
Reading pair table potential file sysFiles/pachTab.table with DATE: 2024-07-08
WARNING: 7 of 1000000 force values in table POT are inconsistent with -dE/dr.
WARNING:  Should only be flagged at inflection points (src/pair_table.cpp:469)
pair_coeff * * threebody/table swapMech.3b NULL NULL PA PB
pair_modify pair lj/cut/omp shift yes


# Molecules
include molecules.in
# Script with all molecule information and create groups for computes

# Read the molecule information
molecule CL sysFiles/molecule.patchy.CL
Read molecule template CL:
# Patchy Cross-Linker
  1 molecules
  0 fragments
  0 bodies
  5 atoms with max type 3
  4 bonds with max type 1
  6 angles with max type 2
  0 dihedrals with max type 0
  0 impropers with max type 0
molecule MO sysFiles/molecule.patchy.MO
Read molecule template MO:
# Patchy Monomer
  1 molecules
  0 fragments
  0 bodies
  3 atoms with max type 4
  2 bonds with max type 1
  1 angles with max type 1
  0 dihedrals with max type 0
  0 impropers with max type 0

# Introduce the molecules
# ID style args keyword arg
region spawn_box block -$L $L -$L $L -$L $L
region spawn_box block -9.796741 $L -$L $L -$L $L
region spawn_box block -9.796741 9.796741 -$L $L -$L $L
region spawn_box block -9.796741 9.796741 -9.796741 $L -$L $L
region spawn_box block -9.796741 9.796741 -9.796741 9.796741 -$L $L
region spawn_box block -9.796741 9.796741 -9.796741 9.796741 -9.796741 $L
region spawn_box block -9.796741 9.796741 -9.796741 9.796741 -9.796741 9.796741

# create_atoms type style args keyword values
# style_random: N seed region-ID
# keyword_mol: template-ID seed
# keyword_overlap: overlap value = only insert if at least this distance from all existing atoms
# keyword_maxtry: maxtry value = number of attempts to insert a particle before failure
create_atoms 0 random ${NCL} ${seed1} spawn_box mol CL ${seed1} overlap 1.0 maxtry 5000 #xls
create_atoms 0 random 25 ${seed1} spawn_box mol CL ${seed1} overlap 1.0 maxtry 5000 
create_atoms 0 random 25 3234 spawn_box mol CL ${seed1} overlap 1.0 maxtry 5000 
create_atoms 0 random 25 3234 spawn_box mol CL 3234 overlap 1.0 maxtry 5000 
Created 125 atoms
  using lattice units in orthogonal box = (-9.796741 -9.796741 -9.796741) to (9.796741 9.796741 9.796741)
  create_atoms CPU = 0.009 seconds
create_atoms 0 random ${NMO} ${seed2} spawn_box mol MO ${seed2} overlap 1.0 maxtry 5000 #mon
create_atoms 0 random 475 ${seed2} spawn_box mol MO ${seed2} overlap 1.0 maxtry 5000 
create_atoms 0 random 475 6321 spawn_box mol MO ${seed2} overlap 1.0 maxtry 5000 
create_atoms 0 random 475 6321 spawn_box mol MO 6321 overlap 1.0 maxtry 5000 
Created 1425 atoms
  using lattice units in orthogonal box = (-9.796741 -9.796741 -9.796741) to (9.796741 9.796741 9.796741)
  create_atoms CPU = 0.007 seconds

# Create patchy particles
group CrossLinker type 1 3
125 atoms in group CrossLinker
group Monomer type 2 4
1425 atoms in group Monomer
group Patches type 3 4
1050 atoms in group Patches
group CL type 1
25 atoms in group CL
group MO type 2
475 atoms in group MO
group PA type 3
100 atoms in group PA
group PB type 4
950 atoms in group PB
group CM type 1 2
500 atoms in group CM

# Neighbor list
neighbor 1.8 bin # extra-distance style
#neigh_modify delay 0 every 1 check no
#neigh_modify exclude molecule/intra CrossLinker
#neigh_modify exclude molecule/intra Monomer

# COMPUTES

# Compute global kinetic and potential energy and temperature
compute t all temp
compute p all pressure t
compute ep all pe
compute ek all ke
variable eT equal etotal
variable eB equal ebond
variable eA equal eangle
variable eM equal emol
variable ec equal ecouple
variable eC equal econserve

# Potencial energy per pair-wise interaction
compute wcaPair all pair lj/cut/omp epair
compute patchPair all pair table/omp epair
compute swapPair all pair threebody/table epair

# Compute the pressure
compute press all pressure t ke virial
compute pressVirial all pressure t virial
compute pressVirialMod all pressure t pair bond angle

# Computes for the stress
compute cstress all stress/atom t ke pair bond angle
compute cstressVirial all stress/atom t virial
compute cstressVirialMod all stress/atom t pair bond angle
compute stress all reduce sum c_cstress[*]
compute stressVirial all reduce sum c_cstressVirial[*]
compute stressVirialMod all reduce sum c_cstressVirialMod[*]

# Displacement of the central particles
compute disp CM displace/atom
compute redDisp CM reduce ave c_disp[*] # All, because yes

# Get the number of central particles per cluster
compute clusters all aggregate/atom 0.6                             # Create the clusters
compute Nclpart CM chunk/atom c_clusters compress yes discard yes   # Get the number of clusters
compute clsize CM property/chunk Nclpart count                      # Counts the atoms in each chunk
compute idcl CM property/chunk Nclpart id                           # Get the ids of the clusters

# DUMPS and FIXES

thermo ${NsaveStress}
thermo 1000

# Save global energies and temperature
fix Energy all ave/time 1 ${Nsave} ${Nsave} c_t c_wcaPair c_patchPair c_swapPair c_ep c_ek v_eT v_ec v_eC c_p v_eB v_eA v_eM c_redDisp[*] file ${Dir}/${file1_name}
fix Energy all ave/time 1 1000 ${Nsave} c_t c_wcaPair c_patchPair c_swapPair c_ep c_ek v_eT v_ec v_eC c_p v_eB v_eA v_eM c_redDisp[*] file ${Dir}/${file1_name}
fix Energy all ave/time 1 1000 1000 c_t c_wcaPair c_patchPair c_swapPair c_ep c_ek v_eT v_ec v_eC c_p v_eB v_eA v_eM c_redDisp[*] file ${Dir}/${file1_name}
fix Energy all ave/time 1 1000 1000 c_t c_wcaPair c_patchPair c_swapPair c_ep c_ek v_eT v_ec v_eC c_p v_eB v_eA v_eM c_redDisp[*] file /home/franvt/GitRepos/molDynLammps/polymericGels/gel-bonds-1/data/0.050.30.05500-2026-01-27-162300/${file1_name}
fix Energy all ave/time 1 1000 1000 c_t c_wcaPair c_patchPair c_swapPair c_ep c_ek v_eT v_ec v_eC c_p v_eB v_eA v_eM c_redDisp[*] file /home/franvt/GitRepos/molDynLammps/polymericGels/gel-bonds-1/data/0.050.30.05500-2026-01-27-162300/system_assembly.fixf

# Save Pressure and Stress tensor
fix fixStress5 all ave/time 1 ${NsaveStress} ${NsaveStress} c_p c_press[*] c_pressVirial[*] c_pressVirialMod[*] c_stress[*] c_stressVirial[*] c_stressVirialMod[*] file ${Dir}/${file2_name}
fix fixStress5 all ave/time 1 1000 ${NsaveStress} c_p c_press[*] c_pressVirial[*] c_pressVirialMod[*] c_stress[*] c_stressVirial[*] c_stressVirialMod[*] file ${Dir}/${file2_name}
fix fixStress5 all ave/time 1 1000 1000 c_p c_press[*] c_pressVirial[*] c_pressVirialMod[*] c_stress[*] c_stressVirial[*] c_stressVirialMod[*] file ${Dir}/${file2_name}
fix fixStress5 all ave/time 1 1000 1000 c_p c_press[*] c_pressVirial[*] c_pressVirialMod[*] c_stress[*] c_stressVirial[*] c_stressVirialMod[*] file /home/franvt/GitRepos/molDynLammps/polymericGels/gel-bonds-1/data/0.050.30.05500-2026-01-27-162300/${file2_name}
fix fixStress5 all ave/time 1 1000 1000 c_p c_press[*] c_pressVirial[*] c_pressVirialMod[*] c_stress[*] c_stressVirial[*] c_stressVirialMod[*] file /home/franvt/GitRepos/molDynLammps/polymericGels/gel-bonds-1/data/0.050.30.05500-2026-01-27-162300/stress_assembly.fixf

# Save the global cluster information
fix 1 CM ave/time 1 1 ${Ndump} c_idcl c_clsize file ${Dir}/${file3_name} mode vector
fix 1 CM ave/time 1 1 1000 c_idcl c_clsize file ${Dir}/${file3_name} mode vector
fix 1 CM ave/time 1 1 1000 c_idcl c_clsize file /home/franvt/GitRepos/molDynLammps/polymericGels/gel-bonds-1/data/0.050.30.05500-2026-01-27-162300/${file3_name} mode vector
fix 1 CM ave/time 1 1 1000 c_idcl c_clsize file /home/franvt/GitRepos/molDynLammps/polymericGels/gel-bonds-1/data/0.050.30.05500-2026-01-27-162300/clust_assembly.fixf mode vector

# Save atom positions with cluster id
dump dumpID all custom ${Ndump} ${Dir}/traj/${file5_name} id mol c_clusters type x y z vx vy vz
dump dumpID all custom 1000 ${Dir}/traj/${file5_name} id mol c_clusters type x y z vx vy vz
dump dumpID all custom 1000 /home/franvt/GitRepos/molDynLammps/polymericGels/gel-bonds-1/data/0.050.30.05500-2026-01-27-162300/traj/${file5_name} id mol c_clusters type x y z vx vy vz
dump dumpID all custom 1000 /home/franvt/GitRepos/molDynLammps/polymericGels/gel-bonds-1/data/0.050.30.05500-2026-01-27-162300/traj/traj_assembly.*.dumpf id mol c_clusters type x y z vx vy vz
dump_modify dumpID pbc yes # remap atoms via periodic boundary conditions

# RUN SIMULATION

# Brownian Dynamics using Langevin Thermostat

timestep ${tstep}
timestep 0.001

fix VelVerlet all nve # Use Velocity Verlet integrator

# First elevate the temperature
fix ThermoLng all langevin 0.0 ${temp} ${damp} ${seed3} tally yes zero yes # Brownian Dynamics: langevin + nve
fix ThermoLng all langevin 0.0 0.05 ${damp} ${seed3} tally yes zero yes 
fix ThermoLng all langevin 0.0 0.05 1 ${seed3} tally yes zero yes 
fix ThermoLng all langevin 0.0 0.05 1 2010 tally yes zero yes 
run ${stepsheat}
run 500000
WARNING: Using a manybody potential with bonds/angles/dihedrals and special_bond exclusions (src/pair.cpp:250)
Hybrid pair style last /omp style table/omp
Last active /omp style is angle_style harmonic/omp
Neighbor list info ...
  update: every = 1 steps, delay = 0 steps, check = yes
  max neighbors/atom: 2000, page size: 100000
  master list distance cutoff = 2.92
  ghost atom cutoff = 2.92
  binsize = 1.46, bins = 14 14 14
  7 neighbor lists, perpetual/occasional/extra = 6 1 0
  (1) pair zero, perpetual, skip from (7)
      attributes: half, newton on, omp
      pair build: skip/omp
      stencil: none
      bin: none
  (2) pair lj/cut/omp, perpetual, skip from (7)
      attributes: half, newton on, omp
      pair build: skip/omp
      stencil: none
      bin: none
  (3) pair table/omp, perpetual, skip from (7)
      attributes: half, newton on, omp
      pair build: skip/omp
      stencil: none
      bin: none
  (4) pair threebody/table, perpetual, skip from (6)
      attributes: full, newton on, omp
      pair build: skip/omp
      stencil: none
      bin: none
  (5) compute aggregate/atom, occasional, copy from (6)
      attributes: full, newton on, omp
      pair build: copy
      stencil: none
      bin: none
  (6) neighbor class addition, perpetual
      attributes: full, newton on, omp
      pair build: full/bin/omp
      stencil: full/bin/3d
      bin: standard
  (7) neighbor class addition, perpetual, half/full from (6)
      attributes: half, newton on, omp
      pair build: halffull/newton/omp
      stencil: none
      bin: none
Per MPI rank memory allocation (min/avg/max) = 20.03 | 20.03 | 20.03 Mbytes
   Step          Temp          E_pair         E_mol          TotEng         Press     
         0   0              0.00041490155  0.15480456     0.15521947    -0.21361809   
      1000   0.038128237    0              0.00013757075  0.057293028    0.0036255212 
      2000   0.00015524756  8.543009e-08   0.020977048    0.021209855    0.068369326  
      3000   0.0053601671   0              0.0001566732   0.0081917366   0.0024773034 
      4000   0.00032043582  0              0.0030278828   0.0035082264  -0.026562159  
      5000   0.0011098552   0              0.00027894739  0.0019426561  -0.0005261401 
      6000   0.00052871377  0              0.00073390715  0.0015264661   0.0095531329 
      7000   0.00072896697  0              0.00040823029  0.0015009753  -1.2979742e-05
      8000   0.0007251149   0              0.00053299756  0.0016199682  -0.0032626071 
      9000   0.00081771509  1.3387704e-06  0.00052435467  0.0017514747   2.4759112e-06
     10000   0.00090243713  0              0.0006006103   0.0019533927   0.0011493598 
     11000   0.0010197323   0              0.00066288448  0.0021914962  -0.00042254769
     12000   0.0011051079   0              0.00072884253  0.0023854349  -0.00024522879
     13000   0.0011985165   0              0.00078137006  0.0025779849   0.00057614678
     14000   0.0013249056   0              0.00085482435  0.0028409006   0.00081224385
     15000   0.0014112991   0              0.00096232634  0.0030779093  -0.00010780047
     16000   0.0015343975   0              0.0010154688   0.0033155802  -0.00081771796
     17000   0.0016020278   4.7441589e-08  0.0010642477   0.0034657865   0.00030980887
     18000   0.0017598133   0              0.0011497192   0.003787736    0.0012942109 
     19000   0.0018430414   0              0.0012059735   0.003968752    5.7970273e-05
     20000   0.0019080305   0              0.0012946994   0.0041548986  -0.00044607826
     21000   0.001992366    5.7799363e-07  0.0013610759   0.0043482748   0.00069963965
     22000   0.0021283243  -3.6672612e-09  0.0014649008   0.0046553239   0.00056659963
     23000   0.0025735469  -0.0015218821   0.0017283014   0.004064249    0.00012610136
     24000   0.0024444094  -0.0016039619   0.0016864538   0.0037467405  -0.00025353478
     25000   0.0024681684  -0.0016016608   0.0016795706   0.0037777739  -0.00025316254
     26000   0.0025092316  -0.001589946    0.001707866    0.0038793392   0.00073864395
     27000   0.0030589285  -0.0031177114   0.002012252    0.0034799731   0.00066127919
     28000   0.002845273   -0.0031717067   0.0020052056   0.003098655   -0.00065030665
     29000   0.0028512639  -0.0032042003   0.0019482227   0.0030181589  -0.00057429635
     30000   0.0032344357  -0.0047618896   0.0020775691   0.0021642029  -0.00033739482
     31000   0.0030894149  -0.0048363168   0.0022389438   0.0020337595  -5.3009553e-05
     32000   0.0032581607  -0.0048324545   0.0021927205   0.0022443541   0.0004081845 
     33000   0.0032215756  -0.0048326584   0.0023286392   0.0023252265   0.00081874659
     34000   0.0040031854  -0.0075381178   0.0027834668   0.0012462531  -0.00038818505
     35000   0.0034571004  -0.0077706526   0.0024728762  -0.00011547145 -0.00047436738
     36000   0.0044781808  -0.010762873    0.002879389   -0.0011705465   0.00029027022
     37000   0.0046349367  -0.012733258    0.0026719396  -0.0031133985   0.0014358727 
     38000   0.003998545   -0.012685588    0.002635141   -0.004056499    0.00085337462
     39000   0.0042627611  -0.014426017    0.0027870632  -0.0052489372  -0.00031597353
     40000   0.004134619   -0.014466278    0.0026197665  -0.0056485844  -0.0001137876 
     41000   0.0039847584  -0.014424344    0.0027835834  -0.005667479    0.0012337074 
     42000   0.0041003877  -0.014461977    0.0027443035  -0.00557106     0.00093054757
     43000   0.0046610268  -0.016092878    0.0029636582  -0.0061421907  -0.00089918803
     44000   0.0050067312  -0.017410171    0.0032844405  -0.0066204791   0.00065734213
     45000   0.004455419   -0.017661738    0.0034852371  -0.0074976837   0.00065597604
     46000   0.0051730411  -0.018875657    0.0031358034  -0.0079852986   0.0012827956 
     47000   0.0048234191  -0.020213159    0.0036651187  -0.0093175793  -0.00014686758
     48000   0.0050129943  -0.020804911    0.0032635772  -0.010026693    0.0010465819 
     49000   0.0048960789  -0.02092223     0.003432082   -0.010150768    0.00069088756
     50000   0.0049235086  -0.020936616    0.0033882007  -0.010167917    0.00079825125
     51000   0.00492648    -0.020952896    0.0034339135  -0.01013403    -9.9449397e-06
     52000   0.0049640066  -0.020935875    0.0036265379  -0.0098681306   0.0005278417 
     53000   0.0051770599  -0.020929367    0.003623604   -0.0095451832   0.00036990358
     54000   0.0052657508  -0.020944248    0.0034947157  -0.0095560024   0.00086037796
     55000   0.0060853671  -0.023751249    0.0038114575  -0.01081763    -0.0011225271 
     56000   0.0062538265  -0.025626116    0.0044453757  -0.011806053   -0.00027783503
     57000   0.0059547504  -0.025535002    0.0040988231  -0.012509816    0.00078965433
     58000   0.0058286135  -0.025713989    0.0042028718  -0.012773837    0.00087809502
     59000   0.0059676236  -0.025765081    0.004081245   -0.012738176   -0.00083566962
     60000   0.0062263966  -0.028179923    0.0047460447  -0.014100309   -0.00074142725
     61000   0.0059818772  -0.028790768    0.0043156234  -0.015508118    0.0019284784 
     62000   0.0067672005  -0.030551642    0.0044656802  -0.01594171     0.00085783845
     63000   0.0061759127  -0.030546407    0.0042984406  -0.016990074    0.00022777165
     64000   0.006368309   -0.030614988    0.0043737853  -0.016694903    0.00091681367
     65000   0.006979178   -0.03180092     0.0046508149  -0.016688092   -0.0010421423 
     66000   0.006667507   -0.033497093    0.0049865955  -0.018515689   -0.00018351472
     67000   0.0070366041  -0.035029979    0.0048388929  -0.019642989    0.001288804  
     68000   0.0066585769  -0.035294355    0.0049549037  -0.020358029    0.00035402746
     69000   0.00774469    -0.03695675     0.0046795276  -0.020667683    0.00070925206
     70000   0.0075509027  -0.04064005     0.0055705939  -0.02375041    -0.0018496157 
     71000   0.0080932312  -0.043399417    0.005499981   -0.025767421    0.0017198277 
     72000   0.0073398181  -0.043454734    0.0052650805  -0.02718703     0.0016786875 
     73000   0.0082095926  -0.045840785    0.0054637154  -0.028070625    0.0004600615 
     74000   0.0077800166  -0.046450173    0.0052802499  -0.029507427   -0.00041996995
     75000   0.0074292031  -0.046591614    0.0053660244  -0.030088975   -0.00041463259
     76000   0.0080027951  -0.048257038    0.0055370475  -0.030723543    0.0020339269 
     77000   0.0076748602  -0.048277163    0.0053867585  -0.031385542    0.001708909  
     78000   0.008144959   -0.049644101    0.0054825338  -0.03195201    -0.00091277784
     79000   0.0074898826  -0.051124451    0.005852221   -0.034044654    0.00045086305
     80000   0.0082122728  -0.052183593    0.0058364175  -0.034036714   -0.00035149015
     81000   0.0085000032  -0.054556112    0.0056781302  -0.036136202    0.00015970755
     82000   0.0082185397  -0.056153057    0.0062090051  -0.037624196    0.00014269859
     83000   0.0096146426  -0.058705174    0.006278348   -0.038014166    0.00037179401
     84000   0.0092357251  -0.059354831    0.005857861   -0.03965232     0.00047488718
     85000   0.0081015621  -0.059531149    0.0058980691  -0.041488577   -9.8837603e-05
     86000   0.0088965743  -0.061422849    0.0060647872  -0.04202181    -0.00091965681
     87000   0.008721849   -0.062409196    0.0064831676  -0.042851695    0.0029836841 
     88000   0.010043441   -0.06582373     0.0067625536  -0.044005735    0.0013747767 
     89000   0.0095545455  -0.066951882    0.0061576629  -0.046471648    0.00010086466
     90000   0.010147375   -0.069095769    0.0060937386  -0.047790787    0.00022778544
     91000   0.0092176955  -0.069033274    0.0067508475  -0.048464804    0.00063674755
     92000   0.0095120861  -0.070714241    0.0067916841  -0.049663633    0.0015618703 
     93000   0.0092714691  -0.070794768    0.006522662   -0.050373875    0.0014469555 
     94000   0.0093884616  -0.070797593    0.0067830233  -0.049940963    0.0010637428 
     95000   0.010528898   -0.073839706    0.0066369646  -0.051419583    0.0018230506 
     96000   0.0097243418  -0.073761103    0.0063165777  -0.052867424   -0.0007493365 
     97000   0.010361445   -0.075603985    0.0070295896  -0.053042255    0.00013826626
     98000   0.010936829   -0.078282777    0.0072153604  -0.054672758    0.00022203233
     99000   0.010007058   -0.07857286     0.0069755328  -0.056596425   -0.00061588076
    100000   0.010245952   -0.0787175      0.0072617911  -0.056096696   -0.00060968091
    101000   0.010321905   -0.080184721    0.006843532   -0.05786832    -2.6514343e-05
    102000   0.0098863423  -0.080469564    0.0071374487  -0.05851217     0.0013675838 
    103000   0.011470406   -0.083627393    0.0076160969  -0.058816787    0.00050325661
    104000   0.011527542   -0.085612898    0.0075690398  -0.060763701    0.0024648261 
    105000   0.011119937   -0.087780608    0.0078257665  -0.063285697    0.00052593822
    106000   0.01170929    -0.09016856     0.0077799722  -0.064835983   -0.0010794652 
    107000   0.011522565   -0.09285923     0.0077139178  -0.067872615    0.0014563314 
    108000   0.013520888   -0.099770544    0.0085623327  -0.070939963    0.0011599371 
    109000   0.011529412   -0.1033862      0.0088490306  -0.077254211    9.9780679e-05
    110000   0.012026175   -0.10566135     0.0082480033  -0.079385721    0.00075832342
    111000   0.011215969   -0.10599615     0.0076627336  -0.081520322    0.00083506577
    112000   0.011155031   -0.10616894     0.0077189127  -0.081728273   -0.00026488348
    113000   0.011436224   -0.10621597     0.0077084037  -0.081364294    7.3577918e-05
    114000   0.012672019   -0.11039043     0.0085998253  -0.082794837    0.0012530127 
    115000   0.012153045   -0.11208671     0.0085175372  -0.085351362   -6.4095154e-05
    116000   0.012049636   -0.11466189     0.0086054506  -0.087993642   -0.0015391253 
    117000   0.01243089    -0.11854191     0.0086683144  -0.09123929     0.00065466863
    118000   0.012108205   -0.1201731      0.0083938083  -0.093628703   -0.00041303951
    119000   0.012689081   -0.12013065     0.0088543273  -0.092254982   -0.00096825055
    120000   0.012507534   -0.12010363     0.0079302036  -0.093424231    0.00096341165
    121000   0.012065162   -0.12124812     0.0088226293  -0.094339426    0.0014168063 
    122000   0.012286842   -0.12179662     0.0084377469  -0.094940495    0.0012712939 
    123000   0.011881204   -0.12178198     0.0082467384  -0.095724935   -0.00058701291
    124000   0.011906768   -0.12185453     0.0084862301  -0.095519671    0.00041316515
    125000   0.013792785   -0.1248418      0.0083258689  -0.095840104    0.00016978222
    126000   0.013139208   -0.12489264     0.0088637578  -0.096332791    0.00086586767
    127000   0.01339256    -0.12597187     0.0092406025  -0.096655385    0.00021313089
    128000   0.012977605   -0.12746187     0.0094391684  -0.098568856    0.001440335  
    129000   0.012999544   -0.12831175     0.0090752144  -0.099749798    0.00011772323
    130000   0.013022825   -0.12899056     0.0094926808  -0.099976249    0.00052793574
    131000   0.013891834   -0.13118285     0.0097554493  -0.10060309     0.0034667808 
    132000   0.013860114   -0.13245439     0.0092993604  -0.10237827     0.0009786373 
    133000   0.014934926   -0.13600418     0.0096264331  -0.10398981     0.0016770208 
    134000   0.01462707    -0.1370186      0.0096314426  -0.10546071     0.0020788597 
    135000   0.014228718   -0.13993815     0.01054441    -0.10806443     0.00046501017
    136000   0.014914804   -0.14348418     0.0098365609  -0.11128985    -0.0021641173 
    137000   0.013973747   -0.14361697     0.009459494   -0.11321037    -0.0020976194 
    138000   0.013872876   -0.14417564     0.0092943229  -0.11408543     0.0023131397 
    139000   0.014460919   -0.14667179     0.0093290601  -0.11566535    -0.00066858715
    140000   0.015166561   -0.15084675     0.010136513   -0.11797507     0.00025845536
    141000   0.014208733   -0.15355689     0.010021478   -0.12223607    -0.0010538288 
    142000   0.014540299   -0.15515102     0.010751868   -0.12260277     0.00086521746
    143000   0.014997595   -0.15532283     0.010004932   -0.12283601     0.00099784296
    144000   0.01490291    -0.15833363     0.010711901   -0.12528178     0.0037683474 
    145000   0.015051655   -0.16026409     0.0099233847  -0.12777779     0.00049042536
    146000   0.015979182   -0.16192698     0.010423745   -0.12754993     0.0012575711 
    147000   0.015147878   -0.16551335     0.010249275   -0.13255692    -0.0013239703 
    148000   0.014825176   -0.16665825     0.01015925    -0.13427558     0.0015399896 
    149000   0.015494723   -0.16841666     0.010200502   -0.13498906     0.0023635142 
    150000   0.015465676   -0.1694731      0.010264762   -0.13602479     0.0026424569 
    151000   0.016167965   -0.17369113     0.010541863   -0.13891296    -0.00070770643
    152000   0.015683691   -0.17684387     0.011211877   -0.14212163     0.00034250157
    153000   0.01656846    -0.18126825     0.011133369   -0.14529822     0.0020014242 
    154000   0.016773033   -0.18366256     0.011995863   -0.14652338    -0.00059148474
    155000   0.015785556   -0.18395009     0.011174891   -0.14911214     0.00020290486
    156000   0.016256696   -0.18522459     0.011044093   -0.14981118     0.00096699587
    157000   0.015910268   -0.18725396     0.011083719   -0.15232024     0.0010204386 
    158000   0.01668863    -0.19126579     0.011264912   -0.15498408     0.0010892588 
    159000   0.017307707   -0.19490463     0.01210997    -0.15684985     0.00061754826
    160000   0.017286168   -0.19815935     0.011192504   -0.16105433     0.00042546026
    161000   0.01685865    -0.20211613     0.012425171   -0.1644193      0.0022811951 
    162000   0.016105746   -0.20289588     0.011789036   -0.16696381     8.273949e-06 
    163000   0.017682302   -0.20601745     0.011607279   -0.16790383     0.0036395121 
    164000   0.016711545   -0.20647337     0.011803369   -0.16961886     3.1427165e-05
    165000   0.017245625   -0.20780135     0.011940298   -0.17000931    -0.0012428759 
    166000   0.017541695   -0.21172958     0.011837362   -0.17359665     0.0011696033 
    167000   0.017069197   -0.21262288     0.012105317   -0.17493028     0.0032196413 
    168000   0.018187669   -0.21449267     0.011258684   -0.17597008     0.00087491087
    169000   0.017091391   -0.21537452     0.011513301   -0.17824068     0.00084536991
    170000   0.017678687   -0.21710045     0.011942382   -0.17865715     0.002610459  
    171000   0.017836617   -0.2173808      0.011492091   -0.17915105     0.00083438871
    172000   0.017235823   -0.21717107     0.011659228   -0.17967479    -0.0010030426 
    173000   0.016980286   -0.2183061      0.012029623   -0.18082248    -6.7138468e-05
    174000   0.018914965   -0.2229929      0.012969689   -0.18166906     0.0019989009 
    175000   0.017894866   -0.22375807     0.012662589   -0.1842705      0.00068528834
    176000   0.018384573   -0.22601438     0.012694707   -0.18576061     0.00091090186
    177000   0.018278042   -0.22698285     0.012272734   -0.18731074     0.0025119106 
    178000   0.018743196   -0.23004157     0.012406001   -0.18953891     0.0016600777 
    179000   0.019809599   -0.23265691     0.012306404   -0.19065528    -0.0010522512 
    180000   0.018859042   -0.23459107     0.013023229   -0.19329752     0.00072763275
    181000   0.018091767   -0.23554728     0.011872913   -0.19655423     0.0030833182 
    182000   0.018822617   -0.23738286     0.012312979   -0.19685417    -0.00071220455
    183000   0.020124442   -0.24064763     0.013071959   -0.19740848    -0.0014960358 
    184000   0.019127351   -0.2444336      0.013515999   -0.20224508     0.0051912273 
    185000   0.019609875   -0.24484309     0.012486548   -0.20296071     0.0048092299 
    186000   0.0197249     -0.24648401     0.012679914   -0.20423583     0.0056295484 
    187000   0.020705379   -0.25228128     0.014633631   -0.20660962     0.0025515556 
    188000   0.019151811   -0.25402013     0.013967739   -0.21134321     0.0011937287 
    189000   0.018625218   -0.25563509     0.013553296   -0.21416199     0.0037573733 
    190000   0.019605514   -0.25595194     0.013288484   -0.21327416     0.0025400461 
    191000   0.020011714   -0.25975658     0.013430991   -0.21632739     0.0019659513 
    192000   0.020272719   -0.2601826      0.013185245   -0.2166079      0.0050453176 
    193000   0.019700963   -0.26076787     0.013931567   -0.21730392    -0.0006335381 
    194000   0.01974209    -0.26051344     0.013705068   -0.21721434     0.0026431003 
    195000   0.019528476   -0.26081942     0.013796464   -0.21774914    -0.0028261175 
    196000   0.020847875   -0.26180311     0.013994319   -0.21655715    -0.0014210751 
    197000   0.020752863   -0.26587403     0.014089013   -0.22067581     0.0014279831 
    198000   0.020746688   -0.26668265     0.013695358   -0.22188734     0.0057267931 
    199000   0.020376723   -0.26664822     0.014284056   -0.2218188      0.0011137905 
    200000   0.020564482   -0.26827183     0.01416768    -0.22327733    -0.0022260281 
    201000   0.02152223    -0.26991351     0.013629715   -0.22402128     0.0041966306 
    202000   0.020320238   -0.27168149     0.015199289   -0.22602151     0.0013686853 
    203000   0.020647242   -0.27289309     0.014050637   -0.22789157     0.0022985773 
    204000   0.022206744   -0.27627058     0.01511956    -0.2278624      0.00039476784
    205000   0.021332742   -0.27759552     0.015603883   -0.23001317     0.002762463  
    206000   0.021806195   -0.28006701     0.014940895   -0.23243793    -0.0028518012 
    207000   0.020433408   -0.28018321     0.013470216   -0.23608266     0.0012217397 
    208000   0.021593674   -0.28278939     0.014792058   -0.23562772     0.0011186862 
    209000   0.022018056   -0.28430995     0.014134107   -0.23717007     0.0047496959 
    210000   0.021816359   -0.28594536     0.014438505   -0.23880343     0.00056101019
    211000   0.021717485   -0.28657692     0.014727566   -0.23929414     0.001095136  
    212000   0.022160084   -0.28629262     0.014291979   -0.23878196     0.0014269198 
    213000   0.021816044   -0.29070717     0.01517513    -0.24282909     0.0017950691 
    214000   0.023286297   -0.29595422     0.015344885   -0.24570242     0.0029296911 
    215000   0.021715143   -0.29726993     0.01575671    -0.24896152     0.0010772507 
    216000   0.022295345   -0.29760164     0.014016958   -0.25016324    -0.0012030449 
    217000   0.022406457   -0.30175774     0.015200195   -0.25296954     0.00094025328
    218000   0.022533532   -0.30333786     0.015566297   -0.25399307     0.0043354953 
    219000   0.023041914   -0.30670953     0.015382584   -0.25678637     0.0051030406 
    220000   0.023084739   -0.30748818     0.014403275   -0.25848014     0.0017070253 
    221000   0.022110167   -0.30960218     0.015173119   -0.2612852      0.0044769433 
    222000   0.022521283   -0.31174169     0.01593642    -0.26204514    -0.0030236054 
    223000   0.023426398   -0.3119563      0.016044544   -0.26079483     0.0056978253 
    224000   0.0236492     -0.31203738     0.015628559   -0.26095791    -0.00061461526
    225000   0.022297845   -0.31225943     0.015565858   -0.26326838     0.0015392877 
    226000   0.023375677   -0.31371247     0.014893005   -0.26377858     0.0041310608 
    227000   0.022912094   -0.31585272     0.015753695   -0.26575306    -0.00031987834
    228000   0.022392934   -0.31707021     0.015767768   -0.26773471     0.0026396159 
    229000   0.022794391   -0.3170614      0.015678674   -0.2672132     -0.0022149739 
    230000   0.023926918   -0.31920433     0.015720647   -0.26761646     0.0038768585 
    231000   0.024045544   -0.32095377     0.015843311   -0.26906541     0.0012855178 
    232000   0.023437912   -0.32278456     0.01649165    -0.27115872     0.0041943735 
    233000   0.024340687   -0.32398125     0.016036218   -0.27145756    -0.00056112981
    234000   0.023894039   -0.32599065     0.01670617    -0.27346654     0.0027167267 
    235000   0.024237429   -0.32728888     0.01609395    -0.27486224     0.0022162189 
    236000   0.023136171   -0.32774688     0.016738719   -0.27632629    -0.0026771586 
    237000   0.023622263   -0.3278874      0.016094536   -0.27638233    -0.00038193119
    238000   0.024386212   -0.32794226     0.016084903   -0.27530164     0.0059045931 
    239000   0.024482285   -0.32926387     0.016888595   -0.27567554     0.0020411081 
    240000   0.023584713   -0.33101721     0.016783582   -0.27887938     0.0001405098 
    241000   0.026104269   -0.3370344      0.017696097   -0.28020716     0.0038004594 
    242000   0.025032982   -0.33808156     0.017372211   -0.2831841      0.0010350864 
    243000   0.024654656   -0.3392564      0.016658808   -0.28563947    -0.00082079069
    244000   0.024500179   -0.33987971     0.01682043    -0.28633272     0.00041619872
    245000   0.024872106   -0.34054678     0.01696184    -0.28630085    -0.0012519638 
    246000   0.02479618    -0.34138462     0.01762747    -0.28658688    -0.0020451282 
    247000   0.024967264   -0.34141166     0.017504458   -0.28648047    -0.0043619252 
    248000   0.026225094   -0.34444887     0.01711264    -0.28802397     0.0040819565 
    249000   0.025526623   -0.34756551     0.017406956   -0.29189332     0.00032736332
    250000   0.025450118   -0.34927283     0.017790361   -0.29333192     0.0030175967 
    251000   0.027329468   -0.35422469     0.019467416   -0.29378952    -0.0010389788 
    252000   0.026372847   -0.35606816     0.018239231   -0.29829518    -0.001058947  
    253000   0.026001029   -0.35828464     0.017333863   -0.3019744     -0.00059830281
    254000   0.026447145   -0.36079715     0.017950846   -0.30320118    -0.0010535278 
    255000   0.026339722   -0.36163274     0.017808415   -0.30434024     0.0027599971 
    256000   0.026234759   -0.36206519     0.017107897   -0.30563054     0.0016074572 
    257000   0.02605375    -0.36338137     0.019433241   -0.30489272     0.0021903247 
    258000   0.026253194   -0.36334652     0.017996843   -0.30599529    -0.0045805029 
    259000   0.026169507   -0.36309598     0.018148698   -0.30571835     0.00077473796
    260000   0.026562806   -0.36410234     0.01859391    -0.30568993    -0.0029090817 
    261000   0.027035419   -0.36556724     0.019004173   -0.3060361      0.0025334014 
    262000   0.027526      -0.36663948     0.019265024   -0.3061121     -0.0029898142 
    263000   0.027481193   -0.36862453     0.019121576   -0.30830776     0.0011066165 
    264000   0.027062172   -0.37101471     0.019184724   -0.31126292     0.0011040764 
    265000   0.027349579   -0.37272324     0.018974086   -0.31275125     0.0013097512 
    266000   0.02697077    -0.37279022     0.018225612   -0.31413455     0.0019448978 
    267000   0.027048848   -0.37278574     0.018070064   -0.31416858    -0.0036252473 
    268000   0.027479579   -0.37443506     0.018667177   -0.3145751     -0.00091953651
    269000   0.027239188   -0.37755491     0.019238761   -0.31748373     0.0026703433 
    270000   0.029049453   -0.38075917     0.019097461   -0.31811565     0.002172794  
    271000   0.027739379   -0.38249539     0.019416941   -0.32149623     0.0046530754 
    272000   0.029679278   -0.38387933     0.01939632    -0.31999282     0.0023471087 
    273000   0.028573637   -0.38490582     0.020986682   -0.32108633    -0.0051075672 
    274000   0.029185995   -0.38498851     0.019995907   -0.32124186     0.0055573607 
    275000   0.027796175   -0.38537617     0.020981794   -0.32272701     0.002408214  
    276000   0.026706407   -0.385308       0.020217469   -0.32505676    -0.00022776361
    277000   0.029972381   -0.38641897     0.019809769   -0.32167964     0.0010788591 
    278000   0.028960493   -0.3879667      0.020598615   -0.32395537    -0.0015283892 
    279000   0.029191583   -0.38895924     0.018727552   -0.32647256     0.006192537  
    280000   0.028434676   -0.39040788     0.019811076   -0.32797231    -0.0026792895 
    281000   0.028475874   -0.39290505     0.019647262   -0.33057153     0.00091136267
    282000   0.028403496   -0.39550749     0.019556695   -0.33337304     0.0029727924 
    283000   0.029484984   -0.39718778     0.018973186   -0.33401565    -0.0019302768 
    284000   0.028416433   -0.3977014      0.019934021   -0.33517023     0.0017490871 
    285000   0.029212322   -0.39873199     0.019128836   -0.33581294     0.0069067076 
    286000   0.029487592   -0.40185223     0.021367165   -0.33628221     0.0021312715 
    287000   0.029122842   -0.40507336     0.020442777   -0.34097451     0.0060118341 
    288000   0.029542012   -0.40672785     0.019684665   -0.34275875     0.0027228871 
    289000   0.030301375   -0.40927699     0.02147636    -0.34237789     0.00097355899
    290000   0.029447672   -0.41102952     0.020110982   -0.34677553     0.0014111797 
    291000   0.030871151   -0.41326796     0.020038148   -0.34695296     6.6101542e-06
    292000   0.030251836   -0.41441741     0.020538136   -0.3485308      0.0046044612 
    293000   0.03042652    -0.4167456      0.021341551   -0.34979371     0.0030816364 
    294000   0.030716084   -0.41961743     0.020880478   -0.35269255     0.008025714  
    295000   0.031234097   -0.41975792     0.020807883   -0.35212912    -0.0019786208 
    296000   0.02964831    -0.4212245      0.021225288   -0.35555544    -0.0022796802 
    297000   0.030049562   -0.42223558     0.020789848   -0.35640047    -0.0026286531 
    298000   0.030639378   -0.42296911     0.020591515   -0.35644818     0.00065063505
    299000   0.029932271   -0.4228396      0.020689131   -0.35728103    -0.004469548  
    300000   0.030919378   -0.42381973     0.020698537   -0.35677205     0.0018301216 
    301000   0.029854713   -0.42427491     0.020474389   -0.35904734    -0.0032109452 
    302000   0.029407474   -0.42406933     0.02038311    -0.35960347     0.0024102559 
    303000   0.029635373   -0.42380016     0.02058844    -0.35878734     0.0099135646 
    304000   0.030777992   -0.42467306     0.020611213   -0.35792465     0.0026699631 
    305000   0.030620131   -0.42499936     0.02088337    -0.35821543    -0.0055037957 
    306000   0.031300341   -0.42794174     0.022029113   -0.35899241     0.0041201081 
    307000   0.031949597   -0.42903885     0.021742286   -0.35940308     0.0052669573 
    308000   0.031394351   -0.43091647     0.021470184   -0.36238514    -0.0082510477 
    309000   0.032585423   -0.43320814     0.02109776    -0.36326378    -0.0014119765 
    310000   0.032427327   -0.43447653     0.022679432   -0.36318749     0.0061077196 
    311000   0.032880456   -0.43618262     0.020900954   -0.3659928      0.0012489623 
    312000   0.033396682   -0.43834209     0.021472327   -0.36680706    -0.0012682411 
    313000   0.032302591   -0.44051782     0.021962091   -0.3701331      0.0091688605 
    314000   0.033220711   -0.44440287     0.021883077   -0.37272087    -0.0030525955 
    315000   0.032097435   -0.44763735     0.022805596   -0.37671666    -0.003364997  
    316000   0.032631711   -0.44988188     0.021437439   -0.37952845     0.00070156664
    317000   0.032660035   -0.4494792      0.02204671    -0.37847404     0.0061855167 
    318000   0.034857669   -0.45518741     0.024397512   -0.37853713    -0.0024771491 
    319000   0.033933732   -0.45643761     0.023061383   -0.38250847     0.0038790603 
    320000   0.033443338   -0.45727421     0.02300507    -0.3841365      0.009345309  
    321000   0.033973985   -0.45801813     0.023009946   -0.38408009     0.0054216362 
    322000   0.032708765   -0.45835985     0.025080851   -0.3842475      0.0005002405 
    323000   0.033382031   -0.45783062     0.022688535   -0.38510134     0.0016835619 
    324000   0.034130077   -0.46190497     0.022833325   -0.38790956    -0.0058584804 
    325000   0.033651469   -0.46495092     0.022601226   -0.39190505     0.0030436529 
    326000   0.033989277   -0.46708013     0.022599434   -0.39352968    -0.0059620974 
    327000   0.034446103   -0.46783342     0.023855653   -0.39234195    -0.0064521096 
    328000   0.032841433   -0.46749497     0.024474137   -0.39379046     0.0050606369 
    329000   0.033204204   -0.46698366     0.022940975   -0.39426851    -0.00098151645
    330000   0.033679669   -0.46901347     0.023392871   -0.39513369    -0.0073800069 
    331000   0.033756832   -0.471621       0.023744226   -0.3972742      0.0034840249 
    332000   0.034359625   -0.47369796     0.022376008   -0.39981576    -0.0005569644 
    333000   0.03385391    -0.47678388     0.022766704   -0.40326907     0.00018863006
    334000   0.03458672    -0.47762137     0.02385925    -0.40191552     0.0034163041 
    335000   0.033665208   -0.48086381     0.023979554   -0.40641902     8.1892518e-05
    336000   0.034816118   -0.48258398     0.022867686   -0.40752581    -0.0041005134 
    337000   0.034311934   -0.48403773     0.024123476   -0.40847956     0.0011182706 
    338000   0.033999171   -0.48579686     0.023671721   -0.41115928     0.0056876596 
    339000   0.035264207   -0.48847042     0.022804944   -0.41280329     0.00044400179
    340000   0.034520056   -0.48831884     0.024842066   -0.4117301     -0.013693565  
    341000   0.034127497   -0.48891685     0.025157135   -0.4126015     -0.00056103824
    342000   0.034933627   -0.48870829     0.024205524   -0.41213614     0.0010989303 
    343000   0.034595043   -0.4879465      0.02443784    -0.41164958    -0.0040843695 
    344000   0.035914203   -0.48829193     0.023883824   -0.41057155     0.0009957911 
    345000   0.035906845   -0.49026276     0.025546473   -0.41089077    -0.00098958169
    346000   0.036264639   -0.49191112     0.025316335   -0.41223292     0.0029724933 
    347000   0.036526324   -0.49041799     0.024367507   -0.41129634     0.0024332243 
    348000   0.034199737   -0.49225196     0.0235886     -0.41739685     0.00023980558
    349000   0.035010149   -0.4929966      0.023391507   -0.41712375     0.0078838651 
    350000   0.035192734   -0.49546039     0.024640023   -0.41806532     0.0044630731 
    351000   0.03640487    -0.49482252     0.024574548   -0.4156759      0.00011073278
    352000   0.036326147   -0.49454354     0.025371438   -0.41471803     0.0035291618 
    353000   0.034771932   -0.49559842     0.024808842   -0.41866533    -0.0093380753 
    354000   0.036105965   -0.49442183     0.023952864   -0.41634496     0.0019501967 
    355000   0.037119185   -0.49715187     0.025220371   -0.41628864    -0.001183541  
    356000   0.03774743    -0.50468404     0.026297712   -0.42180172    -0.0015720952 
    357000   0.036702041   -0.50439667     0.025323572   -0.42405556     0.0019550028 
    358000   0.035763844   -0.50699805     0.025070705   -0.42831619    -0.015978046  
    359000   0.037655311   -0.50788747     0.025099633   -0.42634131    -0.017206166  
    360000   0.036488582   -0.5100752      0.026275656   -0.42910198    -0.012451562  
    361000   0.037807087   -0.51440982     0.025643283   -0.4320925     -0.0023207404 
    362000   0.037559174   -0.51710447     0.025426246   -0.43537581     0.0080672792 
    363000   0.036716432   -0.51690636     0.024581454   -0.43728579    -0.012933533  
    364000   0.037989393   -0.51661457     0.025013166   -0.43465408    -0.0013349931 
    365000   0.035814711   -0.51882057     0.025804921   -0.43932824    -0.0018888816 
    366000   0.037643808   -0.51978063     0.025638113   -0.43771324    -0.0084196039 
    367000   0.038006682   -0.52311204     0.027170329   -0.43896847     0.0018480297 
    368000   0.038602006   -0.52139048     0.025761477   -0.43776335     0.0029299741 
    369000   0.03751789    -0.52281073     0.026391906   -0.4401783     -0.0046678532 
    370000   0.037904396   -0.5234688      0.02673388    -0.43991501    -0.0032166744 
    371000   0.038674363   -0.52593441     0.025537283   -0.44242301    -0.0037669038 
    372000   0.036504086   -0.52529098     0.026221713   -0.44434846     0.0025153347 
    373000   0.039065303   -0.52618489     0.027145285   -0.44047946    -0.00073142828
    374000   0.039240642   -0.52788416     0.027690922   -0.44137025     0.0015489809 
    375000   0.039085543   -0.52638216     0.026009129   -0.44178255    -0.0069171723 
    376000   0.039391928   -0.52641486     0.026554466   -0.44081062    -0.0054676925 
    377000   0.038766689   -0.5268522      0.027012845   -0.44172684     0.0037365621 
    378000   0.03865447    -0.5290818      0.026821586   -0.44431591     0.0059812412 
    379000   0.038704319   -0.52723245     0.026789275   -0.44242415    -0.015330646  
    380000   0.038352949   -0.52854124     0.026681676   -0.44436726     0.0064880502 
    381000   0.040295522   -0.53145958     0.027302522   -0.44375277     0.020766407  
    382000   0.038067144   -0.53277316     0.027654623   -0.44805466    -0.0077940949 
    383000   0.039614351   -0.53394718     0.026312685   -0.44825131    -0.00010657714
    384000   0.038843895   -0.53488049     0.027161977   -0.44949026     0.0044624019 
    385000   0.038639679   -0.53464897     0.027664413   -0.44906243    -0.0014191337 
    386000   0.03907296    -0.53678449     0.026748384   -0.45146448     0.010440057  
    387000   0.039842627   -0.53827546     0.026561799   -0.45198828     0.012211175  
    388000   0.038952961   -0.53964767     0.027841247   -0.45341468    -0.0044066002 
    389000   0.042249976   -0.54283247     0.027399962   -0.45209843    -0.0023294368 
    390000   0.042057822   -0.54303372     0.027838308   -0.45214938     0.0059336721 
    391000   0.040506272   -0.54673201     0.027214124   -0.45879768    -0.0045930293 
    392000   0.041003763   -0.54723111     0.028093136   -0.45767201    -0.010784707  
    393000   0.040392794   -0.54781692     0.027602021   -0.4596648     -0.020702075  
    394000   0.041430981   -0.54905834     0.027311632   -0.45964033    -0.0095484084 
    395000   0.042295827   -0.5529826      0.028231561   -0.46134823    -0.0018907899 
    396000   0.041202034   -0.55197242     0.028443972   -0.46176527    -0.03948422   
    397000   0.042277673   -0.55229468     0.028485582   -0.4604335     -0.030926491  
    398000   0.039386752   -0.55152182     0.028821789   -0.46365802    -0.0089537189 
    399000   0.040297909   -0.55302115     0.028291656   -0.46432162    -0.0049041935 
    400000   0.040943877   -0.55216698     0.029051028   -0.46173976    -0.024939957  
    401000   0.041050286   -0.55602252     0.028292207   -0.46619461    -0.021291238  
    402000   0.041613525   -0.55427217     0.028288988   -0.46360316    -0.00056102906
    403000   0.04036685    -0.55341552     0.027038753   -0.46586555    -0.0080388421 
    404000   0.039450713   -0.55266015     0.027835461   -0.4656868     -0.0012309318 
    405000   0.041371856   -0.55630554     0.02710739    -0.4671804      0.0021001923 
    406000   0.041850143   -0.55705182     0.028187045   -0.46613006    -0.014666722  
    407000   0.04312187    -0.55932428     0.028969333   -0.46571387     0.010039655  
    408000   0.043419344   -0.55798193     0.028770913   -0.46412402    -0.0023249088 
    409000   0.041609032   -0.56106639     0.029368715   -0.46932439    -0.0020025526 
    410000   0.041055052   -0.56040659     0.028175796   -0.47068795    -0.013748301  
    411000   0.040161904   -0.5615794      0.030282024   -0.47109338    -0.0093924304 
    412000   0.041967627   -0.56472529     0.03039347    -0.47142099     0.0049333788 
    413000   0.04207313    -0.56578647     0.03057442    -0.47214307    -0.0010181809 
    414000   0.04401099    -0.56898434     0.029861127   -0.47314932     0.0036350403 
    415000   0.042723721   -0.56568435     0.029124351   -0.47251577    -0.0084038861 
    416000   0.041814755   -0.56708187     0.029702788   -0.47469742     0.0084875604 
    417000   0.042355465   -0.56838343     0.028686475   -0.47620474     0.0084105231 
    418000   0.043774469   -0.56632048     0.029689577   -0.47101157    -1.0754656e-05
    419000   0.042811622   -0.56762554     0.029716536   -0.473733       0.00012005843
    420000   0.044363423   -0.56939992     0.029798981   -0.47309874     0.011615189  
    421000   0.042999424   -0.57113471     0.03068255    -0.47599463    -0.0065649572 
    422000   0.043432528   -0.5710833      0.028978315   -0.47699822     0.00048530183
    423000   0.044048415   -0.57513109     0.030426121   -0.47867497    -0.0020004373 
    424000   0.041798802   -0.57606845     0.029038759   -0.48437194    -0.0079359095 
    425000   0.043925851   -0.5769066      0.031016262   -0.48004407    -0.0040498661 
    426000   0.044714088   -0.58060279     0.031182571   -0.48239236     0.0092736846 
    427000   0.043367079   -0.58022801     0.031911352   -0.48330801    -0.0084237461 
    428000   0.044408776   -0.58497617     0.030426753   -0.48797923     0.0054310521 
    429000   0.044576964   -0.58546009     0.031025072   -0.48761271    -0.0010765354 
    430000   0.045199724   -0.58317152     0.029458913   -0.48595677    -0.0062898468 
    431000   0.044400945   -0.58622123     0.029186842   -0.49047594     0.0077207445 
    432000   0.043715346   -0.58435467     0.030917885   -0.48790607     0.0018809262 
    433000   0.043979778   -0.58668688     0.030778186   -0.48998159    -0.0050614563 
    434000   0.044112632   -0.58527064     0.030000682   -0.4891437      0.00080198478
    435000   0.044422908   -0.58772086     0.032745297   -0.4883842     -0.0030555954 
    436000   0.045502549   -0.5867308      0.031625494   -0.48689552    -0.0026573803 
    437000   0.045094053   -0.59015358     0.031050897   -0.49150524     0.0020609992 
    438000   0.046080936   -0.58771404     0.031148187   -0.48748905    -0.013781726  
    439000   0.044663238   -0.58777963     0.030690388   -0.49013761    -0.0075503509 
    440000   0.04457623    -0.58935149     0.031776032   -0.49075425     0.0054265825 
    441000   0.046358096   -0.59022395     0.03023959    -0.49049208    -0.003067133  
    442000   0.045488833   -0.58978536     0.032977789   -0.48861834    -0.0016083088 
    443000   0.046450913   -0.59094756     0.032961302   -0.48835484     0.0051530525 
    444000   0.046118414   -0.59593842     0.029935093   -0.49687034    -0.011692003  
    445000   0.046668031   -0.59307767     0.031259643   -0.49186115    -0.0095422889 
    446000   0.046301262   -0.59356037     0.033000029   -0.49115325    -0.0010339325 
    447000   0.046745514   -0.59280816     0.034220175   -0.48851496    -0.0031604826 
    448000   0.047921668   -0.59554275     0.032911025   -0.4907956     -0.01546808   
    449000   0.047270685   -0.59530434     0.034326477   -0.49011758     0.0010639497 
    450000   0.049061796   -0.59902793     0.034368235   -0.49111449     0.008345598  
    451000   0.045236328   -0.60126117     0.032690425   -0.50076003    -0.008932686  
    452000   0.04651221    -0.60223751     0.031518791   -0.50099541    -0.013171695  
    453000   0.045690562   -0.6021691      0.031952277   -0.50172519     0.0058004368 
    454000   0.04723571    -0.60316207     0.033621139   -0.49873308     0.0046175218 
    455000   0.046546869   -0.60060092     0.032442323   -0.49838334    -0.0020944069 
    456000   0.047353638   -0.60304331     0.031947016   -0.50011166    -0.014756429  
    457000   0.04626635    -0.60385931     0.031402419   -0.50310214     0.002472901  
    458000   0.045416661   -0.60282677     0.032370351   -0.50237538     0.0022670148 
    459000   0.046463446   -0.60335668     0.033322139   -0.50038433     0.0040942488 
    460000   0.047672279   -0.60545212     0.031742881   -0.50224696     0.0054193919 
    461000   0.045596507   -0.60626186     0.031096013   -0.50681521    -0.0055772278 
    462000   0.046154484   -0.60248736     0.034324196   -0.4989761     -0.014892853  
    463000   0.048279494   -0.60207342     0.033739883   -0.49596102    -0.012733597  
    464000   0.04806746    -0.60585611     0.033182792   -0.50061865    -0.016479704  
    465000   0.047931749   -0.60580338     0.033529401   -0.50042274     0.0036844652 
    466000   0.046645936   -0.60419152     0.033850027   -0.50041773    -0.0044129764 
    467000   0.047878695   -0.60757835     0.032640252   -0.50316639     0.00044947177
    468000   0.049126811   -0.6085977      0.034771505   -0.50018352    -0.009556112  
    469000   0.048352972   -0.61142997     0.03283299    -0.50611432     0.0086697337 
    470000   0.047435848   -0.61324578     0.034437955   -0.50769995    -0.021193046  
    471000   0.048755441   -0.61452769     0.03614302    -0.50529869     0.0041462943 
    472000   0.049656876   -0.61637643     0.034164149   -0.50777502     0.011099649  
    473000   0.049788707   -0.61543073     0.035120341   -0.50567551     0.0041075609 
    474000   0.049874037   -0.62039702     0.032184329   -0.5134499     -0.014322412  
    475000   0.051557986   -0.62141891     0.033288844   -0.51084298    -0.0051462986 
    476000   0.049267829   -0.62139508     0.035462646   -0.51207837    -0.012487678  
    477000   0.052091044   -0.62078981     0.033661229   -0.50904243     0.01027775   
    478000   0.0491109     -0.62284005     0.033757099   -0.51546413    -0.0065200887 
    479000   0.0483241     -0.62307763     0.035165969   -0.51547227    -0.024560524  
    480000   0.050038243   -0.62539385     0.03511873    -0.51526618     0.009734776  
    481000   0.049543591   -0.62587112     0.034935463   -0.51666822    -0.0056055527 
    482000   0.050240721   -0.62464743     0.034594032   -0.51474094    -0.0074217595 
    483000   0.049863203   -0.63061478     0.033891971   -0.52197626    -0.016589867  
    484000   0.048656621   -0.62965899     0.034173529   -0.52254762    -0.0011309049 
    485000   0.049409676   -0.63011012     0.032716414   -0.52332701     0.0022792189 
    486000   0.050321981   -0.63327185     0.033602343   -0.52423523    -0.027140496  
    487000   0.050762319   -0.631135       0.035064431   -0.51997621     0.0081265983 
    488000   0.05038876    -0.63254463     0.035765153   -0.5212451     -0.002039817  
    489000   0.049884158   -0.63119663     0.035555575   -0.5208631     -0.0020165575 
    490000   0.050316404   -0.63211138     0.035331395   -0.52135407    -0.01054029   
    491000   0.051872082   -0.63187257     0.033986783   -0.52012787     0.0044538804 
    492000   0.047759511   -0.63190746     0.035447506   -0.52486691     0.012003163  
    493000   0.050016754   -0.6316244      0.034406548   -0.52224112     0.0033174322 
    494000   0.050089127   -0.63465381     0.036574245   -0.52299435    -0.016874147  
    495000   0.050321654   -0.63425302     0.03619456    -0.52262468    -0.00044584044
    496000   0.050548147   -0.63459988     0.036809526   -0.52201705    -0.00096251846
    497000   0.053090754   -0.63527025     0.034719148   -0.52096635    -0.0041081591 
    498000   0.052869296   -0.63495585     0.034701072   -0.521002       0.0059667008 
    499000   0.051813503   -0.63723886     0.036601181   -0.52296757     0.012288644  
    500000   0.051318412   -0.63555189     0.035629389   -0.52299455    -0.011928703  
Loop time of 118.425 on 8 procs for 500000 steps with 1550 atoms

Performance: 364788.627 tau/day, 4222.091 timesteps/s, 6.544 Matom-step/s
91.7% CPU use with 8 MPI tasks x 1 OpenMP threads

MPI task timing breakdown:
Section |  min time  |  avg time  |  max time  |%varavg| %total
---------------------------------------------------------------
Pair    | 13.789     | 14.569     | 15.222     |  12.3 | 12.30
Bond    | 4.7243     | 5.2367     | 5.5164     |  11.1 |  4.42
Neigh   | 0.044547   | 0.044636   | 0.044717   |   0.0 |  0.04
Comm    | 10.976     | 11.966     | 13.335     |  20.9 | 10.10
Output  | 0.37309    | 0.39535    | 0.41848    |   2.4 |  0.33
Modify  | 84.778     | 84.891     | 85.002     |   0.9 | 71.68
Other   |            | 1.323      |            |       |  1.12

Nlocal:         193.75 ave         222 max         176 min
Histogram: 2 1 1 1 0 1 0 1 0 1
Nghost:        582.125 ave         607 max         555 min
Histogram: 3 0 0 0 0 0 2 0 1 2
Neighs:              0 ave           0 max           0 min
Histogram: 8 0 0 0 0 0 0 0 0 0
FullNghs:         3095 ave        4045 max        2735 min
Histogram: 3 3 0 0 0 0 1 0 0 1

Total # of neighbors = 24760
Ave neighs/atom = 15.974194
Ave special neighs/atom = 2.1612903
Neighbor list builds = 180
Dangerous builds = 0

unfix ThermoLng

# Now we let the system to create the polymeric network
fix ThermoLng all langevin ${temp} ${temp} ${damp} ${seed3} tally yes zero yes # Brownian Dynamics: langevin + nve
fix ThermoLng all langevin 0.05 ${temp} ${damp} ${seed3} tally yes zero yes 
fix ThermoLng all langevin 0.05 0.05 ${damp} ${seed3} tally yes zero yes 
fix ThermoLng all langevin 0.05 0.05 1 ${seed3} tally yes zero yes 
fix ThermoLng all langevin 0.05 0.05 1 2010 tally yes zero yes 
run ${steps}
run 3500000
WARNING: Using a manybody potential with bonds/angles/dihedrals and special_bond exclusions (src/pair.cpp:250)
Hybrid pair style last /omp style table/omp
Last active /omp style is angle_style harmonic/omp
Per MPI rank memory allocation (min/avg/max) = 24.03 | 24.03 | 24.04 Mbytes
   Step          Temp          E_pair         E_mol          TotEng         Press     
    500000   0.051318412   -0.63555189     0.035629389   -0.52299455    -0.014525361  
    501000   0.051914913   -0.63688823     0.033722033   -0.52534407    -0.010704146  
    502000   0.051827915   -0.63671689     0.036768227   -0.52225694    -0.0092161528 
    503000   0.051698855   -0.63786079     0.034919078   -0.52544346    -0.0046993575 
    504000   0.052329438   -0.63613945     0.035663948   -0.52203199    -0.0073009067 
    505000   0.054013834   -0.63973605     0.035177644   -0.52358992    -0.0015392418 
    506000   0.05308315    -0.6376737      0.036187068   -0.52191328    -0.0090892544 
    507000   0.051301487   -0.64097506     0.036060399   -0.52801208    -0.015835108  
    508000   0.049110259   -0.64290633     0.036331148   -0.53295732    -0.0096893292 
    509000   0.051685168   -0.64538433     0.037720393   -0.53018621    -0.01159462   
    510000   0.051308841   -0.64508548     0.037667215   -0.53050466    -0.0099195945 
    511000   0.054321265   -0.64403639     0.035716114   -0.52689095     0.0034570557 
    512000   0.051184586   -0.64410917     0.036397038   -0.53098478    -0.00098635724
    513000   0.051497767   -0.64295273     0.036824127   -0.52893179    -0.0032456742 
    514000   0.050661062   -0.64536701     0.036143339   -0.5332811     -0.0002262234 
    515000   0.0524414     -0.64588633     0.037170849   -0.53010413     0.0021680488 
    516000   0.050789473   -0.64411645     0.034814518   -0.53316687    -0.011229822  
    517000   0.049653096   -0.64536253     0.034925542   -0.5360054     -0.0052761413 
    518000   0.052672329   -0.64598505     0.034944892   -0.53208264    -0.016437307  
    519000   0.052734455   -0.64568703     0.034159027   -0.53247735    -0.0028686292 
    520000   0.053294188   -0.64810394     0.037116007   -0.53109823     0.0058404644 
    521000   0.055607511   -0.64918562     0.035892443   -0.52993572     0.0044580715 
    522000   0.052267838   -0.64734628     0.036105748   -0.53288935    -0.037090875  
    523000   0.051406417   -0.64922998     0.035460667   -0.53670944     0.0077942871 
    524000   0.049015107   -0.65110167     0.036289214   -0.54133723    -0.0030179346 
    525000   0.052199431   -0.64997336     0.036491759   -0.53523297     0.013185913  
    526000   0.052288345   -0.65283949     0.036941951   -0.53751563     0.011720294  
    527000   0.049055309   -0.65210645     0.037862885   -0.54070807    -0.014108081  
    528000   0.050542596   -0.65417126     0.035249064   -0.54315722     0.0012737876 
    529000   0.048939257   -0.65276981     0.037120877   -0.5422874      0.0030750207 
    530000   0.052686487   -0.65151272     0.033849908   -0.53868407    -0.01601436   
    531000   0.049497751   -0.65454264     0.037908428   -0.54243549     0.00069049423
    532000   0.051001926   -0.65346639     0.035717709   -0.54129515     0.0088868402 
    533000   0.05137931    -0.65282189     0.035916862   -0.53988578    -0.014154829  
    534000   0.053030058   -0.65288166     0.035431112   -0.53795678    -0.0019356919 
    535000   0.051591538   -0.65231618     0.035514219   -0.53946458    -0.024755443  
    536000   0.049312926   -0.65319315     0.035894565   -0.54337692    -0.0094738917 
    537000   0.051147005   -0.65304827     0.036909594   -0.53946766     0.0035994914 
    538000   0.051768678   -0.65483361     0.03587959    -0.5413511      0.010517835  
    539000   0.05144933    -0.65692895     0.034617565   -0.54518718    -0.012532015  
    540000   0.05055645    -0.6589463      0.037168247   -0.54599231    -0.016010288  
    541000   0.052908915   -0.65741034     0.036234367   -0.5418638      0.003105247  
    542000   0.051513149   -0.65619156     0.036940362   -0.54203132     0.015356759  
    543000   0.050309694   -0.65841345     0.037193884   -0.54580371    -0.00095031786
    544000   0.051881977   -0.65841846     0.036021051   -0.54462465    -0.0018541861 
    545000   0.051336069   -0.65925961     0.036145135   -0.54616005    -0.0037654491 
    546000   0.052538532   -0.65639911     0.037691578   -0.53995058    -0.010133248  
    547000   0.052504695   -0.65925638     0.036733304   -0.54381684    -0.013994008  
    548000   0.05178027    -0.65931461     0.037833033   -0.54386128    -0.011650242  
    549000   0.052766025   -0.6618471      0.036885372   -0.54586376    -0.0083820997 
    550000   0.050935617   -0.66073507     0.035722185   -0.54865876     0.011473433  
    551000   0.051592699   -0.66146007     0.035756843   -0.5483641      0.0020848708 
    552000   0.050940256   -0.66172628     0.035190926   -0.55017426    -0.0069237518 
    553000   0.051308022   -0.66270706     0.036583875   -0.5492108     -0.0031852223 
    554000   0.05221042    -0.66219412     0.036114151   -0.54781486     0.011245637  
    555000   0.050881796   -0.66148721     0.03643437    -0.54877939    -0.017914917  
    556000   0.050858856   -0.66409317     0.035944617   -0.55190949     0.015527098  
    557000   0.050446279   -0.66319881     0.034755959   -0.55282226     0.0056244306 
    558000   0.052803569   -0.66327275     0.03447329    -0.5496452     -0.013689154  
    559000   0.050897937   -0.66362166     0.034974272   -0.55234974    -0.0045803093 
    560000   0.050720256   -0.66407332     0.036374846   -0.55166718    -0.007411799  
    561000   0.051488618   -0.66402945     0.038607164   -0.54823918     0.0096913195 
    562000   0.052080899   -0.66367908     0.037004695   -0.54860344    -0.0031632885 
    563000   0.05094278    -0.66623745     0.038167185   -0.5517054      0.016619015  
    564000   0.051971101   -0.66623843     0.035930581   -0.55240149    -0.010067943  
    565000   0.050653793   -0.66537644     0.035883109   -0.55356166    -0.01784337   
    566000   0.051235387   -0.66453274     0.033871112   -0.55385813    -0.011183217  
    567000   0.051100867   -0.66539124     0.036594081   -0.55219531    -0.00058038266
    568000   0.052526746   -0.66536663     0.037503634   -0.54912371     6.314486e-05 
    569000   0.05140224    -0.66857551     0.035479587   -0.55604231    -0.0062333714 
    570000   0.052396048   -0.6664944      0.035391265   -0.55255977    -0.01467669   
    571000   0.052758176   -0.66588708     0.033743977   -0.55305689    -0.00097026042
    572000   0.052231559   -0.66615506     0.036117799   -0.55174047    -0.0088591089 
    573000   0.050844654   -0.6663057      0.03656546    -0.55352246    -0.013206767  
    574000   0.050756848   -0.66632945     0.034195237   -0.55604806    -0.012442061  
    575000   0.050935666   -0.66710963     0.035852393   -0.55490303     0.0055118314 
    576000   0.051966843   -0.6646447      0.037265669   -0.54947906     0.0028322337 
    577000   0.05119381    -0.66536828     0.035720735   -0.55290637    -0.0099231283 
    578000   0.049962949   -0.66773607     0.034654568   -0.55818543     0.0079046872 
    579000   0.051439894   -0.66881232     0.035220266   -0.55648199    -0.0030364919 
    580000   0.050506666   -0.66718516     0.036413977   -0.55506006    -0.0038952964 
    581000   0.050893555   -0.67037299     0.036372412   -0.5577095     -0.028621285  
    582000   0.050372351   -0.66880844     0.035031295   -0.55826736     0.0083289398 
    583000   0.051460826   -0.66996355     0.035087472   -0.55773464    -0.0039008465 
    584000   0.052641794   -0.67247088     0.038361042   -0.55519809    -0.010255489  
    585000   0.053289279   -0.67094595     0.03497186    -0.55609174     0.0052691499 
    586000   0.051786454   -0.66998493     0.037116117   -0.55523925    -0.0013407754 
    587000   0.050577841   -0.67294004     0.037865144   -0.55925708    -0.002382305  
    588000   0.05179516    -0.67265066     0.03598255    -0.55902549    -0.0080932441 
    589000   0.050341903   -0.67228771     0.036434564   -0.56038901     0.0011889408 
    590000   0.052209925   -0.67465001     0.034467391   -0.56191826    -0.0038461595 
    591000   0.050434694   -0.67443994     0.03571136    -0.56312534     0.0063951339 
    592000   0.051411257   -0.67481969     0.036057456   -0.5616951     -0.0014102602 
    593000   0.050929299   -0.67515005     0.035221206   -0.56358418    -0.0079948836 
    594000   0.049390391   -0.67268599     0.036764416   -0.56188378    -0.0084665598 
    595000   0.051728182   -0.67397166     0.036791291   -0.55963815    -0.013784271  
    596000   0.049610829   -0.67593509     0.03620285    -0.565364      -0.0044791729 
    597000   0.051386127   -0.67575989     0.036032365   -0.56269806    -0.0054889924 
    598000   0.050092283   -0.6736896      0.035903744   -0.56269591     0.0043780953 
    599000   0.051081256   -0.67334663     0.036095279   -0.5606789     -0.0087258392 
    600000   0.049019253   -0.67262503     0.035302366   -0.56384122    -0.01917673   
    601000   0.051692314   -0.67445191     0.036969345   -0.55999412    -0.0069510538 
    602000   0.050833679   -0.67618613     0.037194646   -0.56279016    -0.01112278   
    603000   0.049099529   -0.67593616     0.035353981   -0.5669804     -0.0025165932 
    604000   0.049819382   -0.67750056     0.035743761   -0.56707594    -0.00079953811
    605000   0.051186207   -0.6781801      0.034301595   -0.56714872     0.0032131253 
    606000   0.053820089   -0.67611351     0.035118168   -0.5603173     -0.013158952  
    607000   0.051322675   -0.67617145     0.035796034   -0.56344107    -0.016710348  
    608000   0.050615906   -0.67864175     0.036292665   -0.5664742     -0.0018720434 
    609000   0.051738263   -0.67980368     0.03637012    -0.56587624    -0.00070402183
    610000   0.050930533   -0.67831138     0.03524393    -0.56672094    -0.013067176  
    611000   0.050763116   -0.67790126     0.035753192   -0.56605252     0.010999841  
    612000   0.049984569   -0.68110747     0.037491101   -0.56868789    -0.014928576  
    613000   0.052559773   -0.67725706     0.03663319    -0.56183507    -0.0051064931 
    614000   0.05077161    -0.67806476     0.037049495   -0.56490698     0.0011743579 
    615000   0.049059216   -0.67878628     0.035395057   -0.56984987    -0.0036501685 
    616000   0.051270262   -0.67852237     0.032949054   -0.56871754    -0.01142459   
    617000   0.050138503   -0.67812696     0.035039905   -0.56792782    -0.0037546199 
    618000   0.049744951   -0.67973025     0.035055456   -0.57010551    -0.017466057  
    619000   0.051009914   -0.68096568     0.036674848   -0.56782532     0.0081898735 
    620000   0.050972707   -0.68296285     0.037664241   -0.56888887    -0.028235794  
    621000   0.051087662   -0.68238054     0.038265902   -0.56753258     0.0032409932 
    622000   0.049467564   -0.68239887     0.03599631    -0.57224908    -0.015111774  
    623000   0.049176457   -0.68172946     0.035307162   -0.5727052     -0.001832509  
    624000   0.052422621   -0.68312697     0.036918985   -0.56762478    -0.016797382  
    625000   0.0508076     -0.68166867     0.037339728   -0.56816671    -0.020508969  
    626000   0.050585917   -0.68638207     0.036535167   -0.57401698     0.00021636462
    627000   0.050432404   -0.68566561     0.03595256    -0.57411325    -0.013467383  
    628000   0.050503847   -0.68456765     0.036010095   -0.57285066     0.0012511643 
    629000   0.052887827   -0.68665468     0.036647048   -0.57072708    -0.021358802  
    630000   0.052745792   -0.67902582     0.037857127   -0.56210104    -0.013904426  
    631000   0.052145752   -0.68469187     0.036085073   -0.57043863    -0.0031206441 
    632000   0.052495509   -0.68452522     0.035999255   -0.56983351    -0.0088281511 
    633000   0.049630939   -0.68443155     0.036299428   -0.57373374    -0.0034237906 
    634000   0.05166561    -0.68618234     0.035138462   -0.57359546    -0.0058235331 
    635000   0.052596873   -0.68596307     0.036711865   -0.5704068     -4.8416785e-06
    636000   0.051934177   -0.68797159     0.036625864   -0.57349472    -0.0076305938 
    637000   0.053908028   -0.68918711     0.037284117   -0.57109312    -0.018038718  
    638000   0.050466112   -0.68683407     0.037029911   -0.57415383    -0.013299968  
    639000   0.053023074   -0.68843108     0.036993912   -0.57195387    -0.021539488  
    640000   0.05425514    -0.68923811     0.035169472   -0.57273843     0.01133673   
    641000   0.051641989   -0.69080094     0.034727262   -0.57866067     0.0046751137 
    642000   0.050604322   -0.69082487     0.035409433   -0.57955793     0.0054407695 
    643000   0.050449159   -0.69264899     0.036795375   -0.5802287     -0.0065110597 
    644000   0.052358883   -0.69106336     0.034943915   -0.57763179    -0.011343014  
    645000   0.050452888   -0.69282556     0.036316325   -0.58087873    -0.0053576887 
    646000   0.051925117   -0.69264461     0.0345933     -0.58021388    -0.0014868608 
    647000   0.051855717   -0.69366121     0.034933996   -0.58099382    -0.0084072097 
    648000   0.050247092   -0.69426447     0.03568393    -0.58325853     0.020276765  
    649000   0.05081122    -0.69599014     0.036714718   -0.58310776    -0.013904486  
    650000   0.049772114   -0.69422824     0.035787699   -0.58383054    -0.0077142259 
    651000   0.050822154   -0.6937706      0.03692496    -0.58066159    -0.0012199093 
    652000   0.051267023   -0.69606628     0.03634563    -0.58286973    -0.0035579573 
    653000   0.052527755   -0.6959061      0.035947439   -0.58121787    -0.0074315271 
    654000   0.052338634   -0.69638221     0.034084144   -0.58384076     0.0011698311 
    655000   0.049287635   -0.69725908     0.036307328   -0.587068      -0.019204734  
    656000   0.04896276    -0.69574631     0.035916484   -0.58643307    -0.0026433501 
    657000   0.050123419   -0.69635182     0.035855294   -0.5853599     -0.017282957  
    658000   0.051178114   -0.69938137     0.035088129   -0.5875756     -0.0070059513 
    659000   0.05370879    -0.6993699      0.033689686   -0.585169      -0.017842298  
    660000   0.051110396   -0.70008004     0.038138784   -0.58532513     0.0057834973 
    661000   0.050764644   -0.69940988     0.036168215   -0.58714383    -0.0023010458 
    662000   0.051187444   -0.70149509     0.038107229   -0.58665623    -0.0090118082 
    663000   0.051133251   -0.70224041     0.035770097   -0.58981992    -0.0093211795 
    664000   0.050478987   -0.70146661     0.036717419   -0.58907956    -0.001381125  
    665000   0.052605271   -0.70287622     0.035892085   -0.58812714    -0.014002716  
    666000   0.05332799    -0.70187326     0.038499624   -0.58343325    -0.022247081  
    667000   0.051248626   -0.70083563     0.039100771   -0.58491152    -0.0014365402 
    668000   0.052349639   -0.702413       0.037235536   -0.58670367    -0.013934592  
    669000   0.050874026   -0.70207634     0.036204997   -0.58960953    -0.0028163704 
    670000   0.053030448   -0.70264771     0.035032779   -0.58812058    -0.0025226429 
    671000   0.052380968   -0.7023263      0.036907718   -0.58689782    -0.00035175483
    672000   0.052492717   -0.70602585     0.036062205   -0.59127536    -0.016438156  
    673000   0.053110099   -0.70446961     0.03510144    -0.58975442     0.0079623472 
    674000   0.052054817   -0.7052904      0.037077145   -0.59018141    -0.0032025822 
    675000   0.05156642    -0.70164392     0.035593918   -0.58875028     0.0047594809 
    676000   0.051696573   -0.70302911     0.037094526   -0.58843975    -0.00095591654
    677000   0.050547811   -0.70542817     0.036140407   -0.59351496     0.00055729272
    678000   0.050819526   -0.70703528     0.036772556   -0.59408261    -0.0083861094 
    679000   0.051847299   -0.7050506      0.037247525   -0.5900823     -0.0079666075 
    680000   0.052347889   -0.70545281     0.03620827    -0.59077337    -0.013388523  
    681000   0.05151999    -0.70875913     0.034878583   -0.59665042     0.012298367  
    682000   0.051681951   -0.70860599     0.035353188   -0.59577989    -0.00032069565
    683000   0.052186685   -0.70875355     0.035441485   -0.59508254     0.008221492  
    684000   0.05278396    -0.70810228     0.036328525   -0.59264889    -0.012331309  
    685000   0.051766631   -0.70593405     0.037127631   -0.59120657    -0.0027152694 
    686000   0.051146933   -0.70796131     0.037058429   -0.59423197    -0.016403244  
    687000   0.051875562   -0.70914079     0.033834001   -0.59754365    -0.012989538  
    688000   0.050299702   -0.70922469     0.03695788    -0.59686594    -0.0020062241 
    689000   0.049654832   -0.70785698     0.035552534   -0.59787025     0.0032329064 
    690000   0.049873735   -0.70810723     0.036582543   -0.59676235    -0.017201715  
    691000   0.050280202   -0.70718046     0.035764765   -0.59604405    -0.019264944  
    692000   0.052044439   -0.70980962     0.035778236   -0.59601509    -0.0067411535 
    693000   0.052214932   -0.71204471     0.037764493   -0.59600835     0.0061356673 
    694000   0.051670753   -0.7118732      0.03733367    -0.59708341    -0.00023528141
    695000   0.051583508   -0.71075971     0.035742567   -0.5976918     -0.015897787  
    696000   0.050139443   -0.71141762     0.034632585   -0.60162439     0.013018325  
    697000   0.052540303   -0.71028678     0.034562737   -0.59696443     0.0089692439 
    698000   0.052435499   -0.71138518     0.034350351   -0.59843233    -0.013522774  
    699000   0.051622982   -0.71238523     0.036812176   -0.59818854    -0.020584593  
    700000   0.052851237   -0.71481578     0.034717608   -0.60087246    -0.027807854  
    701000   0.052605672   -0.71384463     0.036068293   -0.59891873    -0.016081247  
    702000   0.049490179   -0.7114125      0.034111654   -0.60311348     0.00014349797
    703000   0.0511262     -0.71100414     0.036658215   -0.5977061     -0.013912924  
    704000   0.051058536   -0.7124235      0.037480783   -0.59840433     0.0094187433 
    705000   0.052573868   -0.71254413     0.036279715   -0.59745449    -0.0090154318 
    706000   0.051001438   -0.71225638     0.037418554   -0.59838503    -0.0075373151 
    707000   0.052012096   -0.71309105     0.03773143    -0.59739181    -0.0078908071 
    708000   0.053165518   -0.71199956     0.035863493   -0.59643924    -0.015932646  
    709000   0.051854245   -0.71213403     0.035960691   -0.59844215    -0.0034057267 
    710000   0.05036215    -0.71536633     0.03613654    -0.6037353      0.00016363984
    711000   0.05073436    -0.71391143     0.037805569   -0.60005342    -0.0058832198 
    712000   0.052286449   -0.71340908     0.037425994   -0.59760401    -0.012774584  
    713000   0.051412009   -0.71318372     0.036566088   -0.59954937    -0.006291892  
    714000   0.05112672    -0.71211052     0.035122806   -0.60034711     0.0082159532 
    715000   0.050028142   -0.71419067     0.034562933   -0.60463394    -0.0049836475 
    716000   0.052113235   -0.71284868     0.035481322   -0.59924794    -0.0081817094 
    717000   0.050448592   -0.7119008      0.035566772   -0.60070996    -0.035111689  
    718000   0.052903053   -0.71231393     0.035646818   -0.59736372    -0.011042446  
    719000   0.05147636    -0.71234414     0.037999966   -0.59717945    -0.0088865555 
    720000   0.050978576   -0.71462836     0.035577036   -0.60263279     0.002468076  
    721000   0.052488981   -0.71456264     0.034803029   -0.60107693     0.0022172301 
    722000   0.050195001   -0.71565533     0.034487245   -0.60592416    -0.004725487  
    723000   0.051772535   -0.71375952     0.035273588   -0.60087724    -0.008088929  
    724000   0.048424829   -0.71478066     0.036585808   -0.60560447     0.0091711094 
    725000   0.04862674    -0.71418276     0.035272816   -0.6060169     -0.00096603783
    726000   0.05084541    -0.71567739     0.034959541   -0.60449894    -0.0027403824 
    727000   0.052337519   -0.71476625     0.035299963   -0.60101066    -0.0067150399 
    728000   0.051429173   -0.71800964     0.037232281   -0.60368337     0.0061705264 
    729000   0.05136274    -0.71895894     0.036295754   -0.60566879    -0.032461864  
    730000   0.052145947   -0.71709612     0.036683431   -0.60224423    -0.017118943  
    731000   0.052837013   -0.71694808     0.034954604   -0.60278909    -0.0060844882 
    732000   0.050782564   -0.71752731     0.03775415    -0.60364846    -0.02180086   
    733000   0.051034271   -0.71454441     0.036800038   -0.60124235     0.0063303628 
    734000   0.051229514   -0.71821852     0.035771645   -0.60565218    -0.010245683  
    735000   0.052881921   -0.71630063     0.035922096   -0.60110683    -0.0026698703 
    736000   0.051682841   -0.71816764     0.037007311   -0.60368608    -0.024259254  
    737000   0.051729159   -0.71771705     0.037463738   -0.60270964     0.00089722231
    738000   0.052402401   -0.71913954     0.037156468   -0.60343019    -0.01440866   
    739000   0.05186234    -0.71610779     0.0370475     -0.60131697    -0.02101606   
    740000   0.052503562   -0.714227       0.037542296   -0.59798017     0.0030860932 
    741000   0.05147226    -0.71398738     0.035866389   -0.60096241    -0.002762855  
    742000   0.051088166   -0.71586052     0.035214859   -0.60406285    -0.0021302362 
[...]
   3793000   0.053620643   -0.80347759     0.046160326   -0.67693819     0.008906436  
   3794000   0.052958455   -0.80360892     0.047407551   -0.67681494    -0.05030167   
   3795000   0.055010554   -0.80616525     0.047352276   -0.67635038    -0.0077992823 
   3796000   0.054535235   -0.80241464     0.046514843   -0.67414972    -0.011585346  
   3797000   0.05394293    -0.80399369     0.046564858   -0.67656664    -0.004682019  
   3798000   0.053926235   -0.80233972     0.047808957   -0.67369359    -0.035206016  
   3799000   0.055511487   -0.80500186     0.045885984   -0.67590237    -0.0058016717 
   3800000   0.051842251   -0.80407919     0.046920419   -0.67944557    -0.035000773  
   3801000   0.052858429   -0.80346868     0.047712919   -0.67651927    -0.046391497  
   3802000   0.053150683   -0.80534615     0.047388687   -0.67828287    -0.022178966  
   3803000   0.054874771   -0.80380205     0.046972318   -0.67457068    -0.0038512243 
   3804000   0.053558939   -0.80560366     0.048835391   -0.67648169    -0.02808701   
   3805000   0.054485199   -0.80468297     0.046852238   -0.67615566     0.007489595  
   3806000   0.052477527   -0.80530231     0.047475946   -0.67916086    -0.027012735  
   3807000   0.053560277   -0.8040466      0.048389041   -0.67536897    -0.0091073026 
   3808000   0.055123875   -0.8056234      0.048581719   -0.67440921    -0.01779355   
   3809000   0.055085399   -0.80335764     0.046844806   -0.67393805    -0.024439239  
   3810000   0.05559654    -0.80729383     0.047707458   -0.67624537    -0.035765824  
   3811000   0.052383476   -0.80478137     0.048153893   -0.67810296    -0.044503693  
   3812000   0.055065439   -0.80464915     0.045310907   -0.67679338     0.00066615808
   3813000   0.055588702   -0.80236729     0.047500624   -0.67153741    -0.037983425  
   3814000   0.056112329   -0.80501566     0.045230672   -0.6756708     -0.012886193  
   3815000   0.052628477   -0.80583065     0.05053867    -0.6764002     -0.036251501  
   3816000   0.055109926   -0.80584111     0.04705411    -0.67617544    -0.028104565  
   3817000   0.053038595   -0.80274127     0.046112165   -0.67712253    -0.021582177  
   3818000   0.054169983   -0.80426614     0.045264788   -0.6777988     -0.021666552  
   3819000   0.052487972   -0.80600556     0.049520719   -0.67780368    -0.054715784  
   3820000   0.05427376    -0.80735614     0.048898935   -0.67709909    -0.0080908099 
   3821000   0.052912085   -0.80601323     0.049190095   -0.67750621    -0.02327125   
   3822000   0.052501031   -0.80522704     0.049728265   -0.67679804    -0.019141717  
   3823000   0.053256643   -0.80394189     0.046045086   -0.67806337    -0.033631593  
   3824000   0.055423163   -0.80175381     0.04939772    -0.66927498    -0.028411655  
   3825000   0.054244318   -0.80404573     0.04887348    -0.67385827    -0.0056297394 
   3826000   0.052670668   -0.80462288     0.049902534   -0.67576531    -0.027460298  
   3827000   0.053943481   -0.80400359     0.045043869   -0.6780967     -0.031555371  
   3828000   0.052939963   -0.80568152     0.048216153   -0.67810665    -0.035312378  
   3829000   0.053681217   -0.80420588     0.047020676   -0.67671533     0.013366674  
   3830000   0.053078795   -0.80393083     0.046455694   -0.67790831    -0.015866944  
   3831000   0.054585287   -0.8030587      0.046269347   -0.67496425    -0.048139562  
   3832000   0.051526451   -0.80323529     0.045521176   -0.6804743     -0.014978264  
   3833000   0.053038424   -0.80464006     0.045384881   -0.67974888     0.0043148825 
   3834000   0.052540725   -0.80524126     0.048939475   -0.67754154     0.012128434  
   3835000   0.054171538   -0.80579799     0.048258488   -0.67633462     0.00056989727
   3836000   0.051047118   -0.80453233     0.049935207   -0.67807585    -0.020743526  
   3837000   0.052952291   -0.80273735     0.048805459   -0.6745547     -0.037772145  
   3838000   0.054495011   -0.80536515     0.048089856   -0.67558551    -0.035333625  
   3839000   0.053260373   -0.80246817     0.047738053   -0.6748911      0.011344734  
   3840000   0.053138702   -0.8038691      0.047915586   -0.67629689    -0.019584472  
   3841000   0.053506919   -0.80480774     0.04554356    -0.67905558    -0.021880426  
   3842000   0.053271483   -0.8055192      0.045794059   -0.67986947    -0.00026267942
   3843000   0.053682525   -0.80470834     0.04701572    -0.67722078    -0.035695378  
   3844000   0.054280327   -0.80459649     0.047036945   -0.67619159     0.010595342  
   3845000   0.052574289   -0.80402714     0.048399118   -0.67681747    -0.017416442  
   3846000   0.054685257   -0.80294167     0.048362577   -0.67260413    -0.019816623  
   3847000   0.053587411   -0.80248318     0.048443103   -0.67371082    -0.013211439  
   3848000   0.054464882   -0.80545084     0.046844789   -0.67696144    -0.010970332  
   3849000   0.05510756    -0.80402349     0.046022365   -0.67539312    -0.017536758  
   3850000   0.056757627   -0.80527057     0.045541669   -0.67464739    -0.01805153   
   3851000   0.055846617   -0.80494119     0.045120969   -0.67610434    -0.0045208952 
   3852000   0.054270028   -0.80557578     0.047058909   -0.67716435    -0.0011774783 
   3853000   0.053471283   -0.80350115     0.047420714   -0.67592526    -0.025369162  
   3854000   0.054919798   -0.80359082     0.04833327    -0.672931      -0.024500891  
   3855000   0.053560238   -0.8046374      0.049083949   -0.67526492    -0.030661737  
   3856000   0.05232814    -0.80261676     0.046995773   -0.67717942    -0.032164028  
   3857000   0.053850941   -0.80408044     0.047813196   -0.67554294    -0.036041382  
   3858000   0.055232601   -0.80564553     0.044440991   -0.67840908    -0.040460163  
   3859000   0.053948792   -0.80399314     0.046651923   -0.67647024    -0.034444863  
   3860000   0.053513516   -0.80285367     0.049293726   -0.67334145    -0.021498046  
   3861000   0.055144317   -0.80401001     0.046297878   -0.67504902     0.001977959  
   3862000   0.053176397   -0.80394253     0.048078987   -0.67615041     0.0076385863 
   3863000   0.054202268   -0.80529149     0.048144342   -0.6758962     -0.00080193265
   3864000   0.055663653   -0.8059862      0.048767621   -0.67377697    -0.030955309  
   3865000   0.053564877   -0.80251059     0.046928578   -0.67528654    -0.026592761  
   3866000   0.054802981   -0.8033029      0.04630832    -0.67484314    -0.027757929  
   3867000   0.052107302   -0.80585627     0.04902071    -0.67872503    -0.030718247  
   3868000   0.053560971   -0.80551248     0.046243729   -0.67897913    -0.0010569755 
   3869000   0.054255576   -0.80088469     0.047409723   -0.6721441     -0.024033708  
   3870000   0.053283017   -0.80275295     0.046613639   -0.67626635    -0.012371025  
   3871000   0.053361965   -0.80481881     0.045496539   -0.67933096    -0.021697989  
   3872000   0.054933506   -0.80796894     0.048571073   -0.67705077    -0.019176349  
   3873000   0.054054794   -0.80570317     0.047446969   -0.67722632    -0.051030444  
   3874000   0.051731075   -0.80492344     0.045327143   -0.68204974     0.017852913  
   3875000   0.053253999   -0.80427568     0.046890184   -0.67755603    -0.055886919  
   3876000   0.053298234   -0.80677155     0.045608579   -0.6812672      0.0048794811 
   3877000   0.051691759   -0.80413494     0.048479487   -0.67816783    -0.011108428  
   3878000   0.051874947   -0.80823385     0.047690531   -0.6827811     -0.046065785  
   3879000   0.055632358   -0.80866738     0.048015437   -0.67725724    -0.039577007  
   3880000   0.053405568   -0.80372002     0.045915471   -0.67774788    -0.063319334  
   3881000   0.052700296   -0.80565789     0.046514259   -0.68014418    -0.022986575  
   3882000   0.052876614   -0.80332233     0.045944364   -0.67811421    -0.029119913  
   3883000   0.054794048   -0.80635902     0.048097929   -0.67612304    -0.032457692  
   3884000   0.051973513   -0.80763475     0.047260051   -0.68246473    -0.046260539  
   3885000   0.053881868   -0.80600827     0.047400939   -0.67783667    -0.01978119   
   3886000   0.054630553   -0.80678766     0.048308796   -0.67658591    -0.024776524  
   3887000   0.054216131   -0.80667536     0.046896789   -0.67850684    -0.037588685  
   3888000   0.055402966   -0.80441278     0.047111223   -0.67425072    -0.028718463  
   3889000   0.054130525   -0.80447099     0.046984924   -0.67634266    -0.0044800048 
   3890000   0.053986299   -0.80272155     0.046475228   -0.67531912    -0.01477787   
   3891000   0.05391134    -0.80296359     0.045877685   -0.67627107    -0.024180793  
   3892000   0.052150143   -0.8048006      0.04772591    -0.67889995    -0.0081188505 
   3893000   0.054533958   -0.80327957     0.04671479    -0.67481661    -0.0074981573 
   3894000   0.053354898   -0.80384632     0.050274139   -0.67359146    -0.016690839  
   3895000   0.053916141   -0.80651913     0.046022311   -0.67967478    -0.047921324  
   3896000   0.052795828   -0.80265558     0.047413457   -0.67609947    -0.0010561897 
   3897000   0.054620551   -0.80550569     0.04624092    -0.6773868      0.0036468985 
   3898000   0.053193901   -0.8011477      0.047287477   -0.67412085    -0.016171401  
   3899000   0.055841852   -0.80193079     0.047075254   -0.6711468     -0.021348561  
   3900000   0.053398647   -0.80358747     0.047301834   -0.67623934    -0.017335067  
   3901000   0.055229627   -0.80608503     0.048370785   -0.67492326     0.0006625399 
   3902000   0.053821726   -0.80674198     0.05041888    -0.67564259    -0.026472671  
   3903000   0.054118766   -0.80769027     0.047791448   -0.67877305     0.0014271819 
   3904000   0.055549188   -0.80389725     0.048339012   -0.67228821    -0.045720145  
   3905000   0.053577664   -0.80409394     0.047457349   -0.67632194     0.0015189374 
   3906000   0.053335934   -0.80512345     0.046973074   -0.67819809    -0.024005914  
   3907000   0.052798682   -0.80824939     0.045793342   -0.68330912    -0.036411723  
   3908000   0.053615289   -0.8033555      0.04865877    -0.67432569    -0.017612853  
   3909000   0.0545242     -0.80299838     0.046598378   -0.67466647    -0.01888958   
   3910000   0.054457435   -0.80390839     0.048637837   -0.6736371     -0.028046635  
   3911000   0.054572325   -0.80569691     0.045963663   -0.67792757    -0.016904563  
   3912000   0.05364013    -0.80315349     0.045864194   -0.67688102     0.0010820697 
   3913000   0.051110698   -0.80505406     0.045604875   -0.6828326     -0.0057595043 
   3914000   0.054821133   -0.80730887     0.046359487   -0.67877074    -0.011927206  
   3915000   0.052805123   -0.80475679     0.046593923   -0.67900629    -0.013926342  
   3916000   0.055599065   -0.80307765     0.046433692   -0.67329917    -0.032922056  
   3917000   0.054929762   -0.80460386     0.046956787   -0.67530559    -0.034176654  
   3918000   0.053008442   -0.80583268     0.048547978   -0.67782334    -0.023352539  
   3919000   0.053636217   -0.80360901     0.048911714   -0.67429488    -0.021886028  
   3920000   0.054143276   -0.803926       0.046034725   -0.67672876    -0.035465333  
   3921000   0.053602777   -0.80602607     0.04595453    -0.67971925    -0.020776936  
   3922000   0.051210126   -0.80531007     0.049915732   -0.6786287     -0.023998432  
   3923000   0.052122775   -0.80586208     0.046938641   -0.68078972    -0.010804671  
   3924000   0.053348443   -0.805429       0.045185682   -0.68027228    -0.053092025  
   3925000   0.053624968   -0.80552327     0.045020391   -0.68011732     0.020429057  
   3926000   0.05247936    -0.80671577     0.048387001   -0.67966051    -0.0023902977 
   3927000   0.054879204   -0.80522141     0.046669543   -0.67628617     0.011956019  
   3928000   0.055367496   -0.80454027     0.045371969   -0.67617064    -0.0069986887 
   3929000   0.054115971   -0.80584613     0.046845261   -0.67787929    -0.016177322  
   3930000   0.054572522   -0.80597688     0.045982875   -0.67818804    -0.050334605  
   3931000   0.053518635   -0.80530295     0.04737443    -0.67770236    -0.0092015361 
   3932000   0.056258647   -0.80328958     0.044377337   -0.67457872    -0.015909732  
   3933000   0.053363316   -0.80324986     0.048173086   -0.67508344    -0.023553002  
   3934000   0.053114906   -0.80384279     0.045757631   -0.6784642     -0.041782559  
   3935000   0.053563749   -0.80709704     0.043417212   -0.68338604    -0.036463246  
   3936000   0.053175539   -0.8041925      0.046753449   -0.6777272     -0.032943077  
   3937000   0.053708148   -0.8043839      0.045268708   -0.67860495    -0.027377948  
   3938000   0.052138327   -0.80365148     0.045482507   -0.68001194    -0.025958477  
   3939000   0.052204763   -0.80631946     0.044867171   -0.68319566    -0.022864227  
   3940000   0.050702837   -0.80345854     0.044588884   -0.68286446     0.030010426  
   3941000   0.054899221   -0.8045227      0.046772318   -0.67545467    -0.043320929  
   3942000   0.055029504   -0.80605188     0.047213875   -0.676347      -0.017627689  
   3943000   0.053205928   -0.80487898     0.048162894   -0.67695868    -0.027803609  
   3944000   0.053213288   -0.80150213     0.04502885    -0.67670485    -0.022330144  
   3945000   0.05181633    -0.80447621     0.046239446   -0.68056241    -0.0094033053 
   3946000   0.055259489   -0.80432944     0.04688114    -0.67461254    -0.0072710129 
   3947000   0.056086916   -0.80449625     0.046746574   -0.67367358    -0.0098229204 
   3948000   0.053895393   -0.80379312     0.046763166   -0.67623902    -0.013364472  
   3949000   0.053838141   -0.8052099      0.04709547    -0.67740932     0.020130224  
   3950000   0.055376578   -0.80627863     0.04831655    -0.67495081    -0.034348729  
   3951000   0.055504254   -0.80478558     0.048884191   -0.67269872    -0.027769442  
   3952000   0.053772885   -0.80436236     0.048140769   -0.6756143     -0.0067882743 
   3953000   0.053551711   -0.80584335     0.045798386   -0.67976922    -0.011489719  
   3954000   0.054530702   -0.80445208     0.048453304   -0.6742555     -0.011247655  
   3955000   0.055715705   -0.8036134      0.046075894   -0.67401787     0.016111861  
   3956000   0.05237494    -0.80400085     0.0478379     -0.67765123    -0.016724347  
   3957000   0.053497778   -0.80580783     0.0471057     -0.67850724    -0.026619193  
   3958000   0.05409011    -0.80678659     0.044893683   -0.68081008    -0.046012623  
   3959000   0.054227526   -0.80391869     0.045280354   -0.67734952    -0.040556092  
   3960000   0.052597613   -0.80324487     0.048270188   -0.67612916    -0.0084345772 
   3961000   0.05244094    -0.80373046     0.047865166   -0.67725464    -0.021176322  
   3962000   0.052277034   -0.8053202      0.045016752   -0.68193849    -0.012609043  
   3963000   0.054263435   -0.80460207     0.046334479   -0.67692495    -0.010567212  
   3964000   0.052796938   -0.80485741     0.048051499   -0.6776616      0.018549263  
   3965000   0.054283817   -0.80247598     0.049152482   -0.6719503     -0.025380872  
   3966000   0.052687162   -0.80381553     0.04716541    -0.67767037    -0.019011106  
   3967000   0.05256571    -0.80286596     0.049267356   -0.6748009     -0.029379934  
   3968000   0.052805517   -0.80626685     0.049927576   -0.6771821     -0.0310058    
   3969000   0.053323342   -0.80443905     0.047101748   -0.67740389    -0.01599762   
   3970000   0.053457443   -0.80518865     0.046483402   -0.67857082    -0.026154843  
   3971000   0.053877855   -0.80463447     0.046913756   -0.67695607    -0.047850118  
   3972000   0.054397878   -0.80319372     0.044655629   -0.67699392    -0.032595964  
   3973000   0.054915575   -0.80456857     0.046898797   -0.67534956    -0.036254673  
   3974000   0.054788803   -0.80247246     0.046124708   -0.67421757    -0.014437375  
   3975000   0.054356363   -0.80459209     0.044700341   -0.6784098     -0.0058608926 
   3976000   0.05503571    -0.80417715     0.044651031   -0.67702581    -0.014439539  
   3977000   0.054167599   -0.80530602     0.047129663   -0.67697737    -0.030591649  
   3978000   0.052765792   -0.80452377     0.047536241   -0.67788991    -0.015368754  
   3979000   0.053213889   -0.80345322     0.046888888   -0.67679499    -0.016537144  
   3980000   0.055157483   -0.80447888     0.044539621   -0.67725642    -0.013212204  
   3981000   0.05313415    -0.80610123     0.046556448   -0.67989498    -0.0087235863 
   3982000   0.054089193   -0.8047702      0.045656068   -0.67803269    -0.02800471   
   3983000   0.055274089   -0.80507247     0.044284211   -0.67793062     0.0074431064 
   3984000   0.05620226    -0.80415617     0.04755044    -0.67235673     0.0064349657 
   3985000   0.056498754   -0.80478116     0.049103138   -0.67098457    -0.020149384  
   3986000   0.055655923   -0.80527597     0.046137598   -0.67570835    -0.025400818  
   3987000   0.055165307   -0.80377425     0.048082339   -0.67299733    -0.018262759  
   3988000   0.053825442   -0.80713372     0.047456983   -0.67899066    -0.0042944819 
   3989000   0.053464632   -0.80526496     0.046522706   -0.67859705    -0.034854633  
   3990000   0.054476153   -0.80381767     0.046787129   -0.67536903     0.0075223132 
   3991000   0.055302315   -0.80420378     0.04903958    -0.67226424    -0.027070942  
   3992000   0.053182121   -0.80169476     0.047669033   -0.67430401    -0.02217852   
   3993000   0.054389447   -0.80493845     0.045954831   -0.67745208     0.0074868892 
   3994000   0.050740757   -0.80483019     0.048719098   -0.68004906    -0.015509051  
   3995000   0.054093282   -0.80627427     0.049056441   -0.67613026    -0.017586947  
   3996000   0.053501298   -0.80694917     0.045692099   -0.6810569      0.0054348135 
   3997000   0.053535762   -0.80656902     0.047162466   -0.67915472    -0.0091662766 
   3998000   0.05339648    -0.80507022     0.047046515   -0.67798066    -0.022121771  
   3999000   0.052960112   -0.8053629      0.048676319   -0.67729766    -0.022861777  
   4000000   0.054035992   -0.80309891     0.046847742   -0.67524947    -0.013161674  
Loop time of 1225.69 on 8 procs for 3500000 steps with 1550 atoms

Performance: 246718.753 tau/day, 2855.541 timesteps/s, 4.426 Matom-step/s
94.2% CPU use with 8 MPI tasks x 1 OpenMP threads

MPI task timing breakdown:
Section |  min time  |  avg time  |  max time  |%varavg| %total
---------------------------------------------------------------
Pair    | 72.658     | 200.84     | 312.89     | 608.2 | 16.39
Bond    | 20.087     | 37.224     | 51.103     | 182.4 |  3.04
Neigh   | 0.83972    | 0.84049    | 0.84128    |   0.0 |  0.07
Comm    | 129.24     | 250.06     | 389.89     | 585.2 | 20.40
Output  | 9.2408     | 9.392      | 9.5052     |   2.8 |  0.77
Modify  | 711.98     | 716.5      | 721.45     |  14.9 | 58.46
Other   |            | 10.84      |            |       |  0.88

Nlocal:         193.75 ave         391 max          35 min
Histogram: 2 1 0 1 1 0 0 2 0 1
Nghost:          584.5 ave         671 max         523 min
Histogram: 2 1 1 1 0 1 0 0 1 1
Neighs:              0 ave           0 max           0 min
Histogram: 8 0 0 0 0 0 0 0 0 0
FullNghs:      7475.75 ave       18764 max         791 min
Histogram: 3 0 1 1 0 0 2 0 0 1

Total # of neighbors = 59806
Ave neighs/atom = 38.584516
Ave special neighs/atom = 2.1612903
Neighbor list builds = 1450
Dangerous builds = 0

# Write data for deformation

write_restart ${Dir}/${file6_name}
write_restart /home/franvt/GitRepos/molDynLammps/polymericGels/gel-bonds-1/data/0.050.30.05500-2026-01-27-162300/${file6_name}
write_restart /home/franvt/GitRepos/molDynLammps/polymericGels/gel-bonds-1/data/0.050.30.05500-2026-01-27-162300/data.hydrogel
System init for write_restart ...
WARNING: Using a manybody potential with bonds/angles/dihedrals and special_bond exclusions (src/pair.cpp:250)
Hybrid pair style last /omp style table/omp
Last active /omp style is angle_style harmonic/omp
Total wall time: 0:22:41
