LAMMPS (22 Jul 2025)
OMP_NUM_THREADS environment is not set. Defaulting to 1 thread.
  using 1 OpenMP thread(s) per MPI task
package omp 0
using multi-threaded neighbor list subroutines
# Input Script of lammps for assembly simulation of polimeric network.
# Main code is based on: https://github.com/PipeB62/Hydrogel-Simulation
# Patchy particles are with bond style.

# Felipe Benavides modified by Fco. Vazquez

# Initialization
units lj
dimension 3
boundary p p p

# Styles of atoms and that stuff
atom_style full
bond_style harmonic
angle_style harmonic
pair_style hybrid/overlay zero 0.0 lj/cut/omp 1.12 table/omp linear 5000000 threebody/table

newton on

# Create simulaiton box
region simulation_box block -$L $L -$L $L -$L $L
region simulation_box block -9.796741 $L -$L $L -$L $L
region simulation_box block -9.796741 9.796741 -$L $L -$L $L
region simulation_box block -9.796741 9.796741 -9.796741 $L -$L $L
region simulation_box block -9.796741 9.796741 -9.796741 9.796741 -$L $L
region simulation_box block -9.796741 9.796741 -9.796741 9.796741 -9.796741 $L
region simulation_box block -9.796741 9.796741 -9.796741 9.796741 -9.796741 9.796741
# N-atom-types region-ID keyword value Is necesesary the extra/special/per/atom (# of special neighbors per atom)
create_box 4 simulation_box     bond/types 1     angle/types 2     extra/bond/per/atom 10     extra/angle/per/atom 6     extra/special/per/atom 10
Created orthogonal box = (-9.796741 -9.796741 -9.796741) to (9.796741 9.796741 9.796741)
  2 by 2 by 2 MPI processor grid

# Atom types
mass 1 1.0      # CL
mass 2 1.0      # MO
mass 3 0.1      # PA
mass 4 0.1      # PB

# Coefficients
include potential.in
# Script with the pair-wise interaction and bonds between particles

bond_coeff 1 100.0 0.45
angle_coeff 1 100.0 180
angle_coeff 2 100.0 109.4712
pair_coeff 1 3 zero 0.5
pair_coeff 1 4 zero 0.5
pair_coeff 2 3 zero 0.5
pair_coeff 2 4 zero 0.5
pair_coeff 3 3 zero 0.5
pair_coeff 1 1 lj/cut/omp 1.0 1.0 1.12
pair_coeff 2 2 lj/cut/omp 1.0 1.0 1.12
pair_coeff 1 2 lj/cut/omp 1.0 1.0 1.12
pair_coeff 3 4 table/omp sysFiles/pachTab.table POT 0.6 # sw/omp sysFiles/patchyPot.sw NULL NULL PA PB
Reading pair table potential file sysFiles/pachTab.table with DATE: 2024-07-08
WARNING: 7 of 1000000 force values in table POT are inconsistent with -dE/dr.
WARNING:  Should only be flagged at inflection points (src/pair_table.cpp:469)
pair_coeff 4 4 table/omp sysFiles/pachTab.table POT 0.6 # sw/omp sysFiles/patchyPot.sw NULL NULL PA PB
Reading pair table potential file sysFiles/pachTab.table with DATE: 2024-07-08
WARNING: 7 of 1000000 force values in table POT are inconsistent with -dE/dr.
WARNING:  Should only be flagged at inflection points (src/pair_table.cpp:469)
pair_coeff * * threebody/table swapMech.3b NULL NULL PA PB
pair_modify pair lj/cut/omp shift yes


# Molecules
include molecules.in
# Script with all molecule information and create groups for computes

# Read the molecule information
molecule CL sysFiles/molecule.patchy.CL
Read molecule template CL:
# Patchy Cross-Linker
  1 molecules
  0 fragments
  0 bodies
  5 atoms with max type 3
  4 bonds with max type 1
  6 angles with max type 2
  0 dihedrals with max type 0
  0 impropers with max type 0
molecule MO sysFiles/molecule.patchy.MO
Read molecule template MO:
# Patchy Monomer
  1 molecules
  0 fragments
  0 bodies
  3 atoms with max type 4
  2 bonds with max type 1
  1 angles with max type 1
  0 dihedrals with max type 0
  0 impropers with max type 0

# Introduce the molecules
# ID style args keyword arg
region spawn_box block -$L $L -$L $L -$L $L
region spawn_box block -9.796741 $L -$L $L -$L $L
region spawn_box block -9.796741 9.796741 -$L $L -$L $L
region spawn_box block -9.796741 9.796741 -9.796741 $L -$L $L
region spawn_box block -9.796741 9.796741 -9.796741 9.796741 -$L $L
region spawn_box block -9.796741 9.796741 -9.796741 9.796741 -9.796741 $L
region spawn_box block -9.796741 9.796741 -9.796741 9.796741 -9.796741 9.796741

# create_atoms type style args keyword values
# style_random: N seed region-ID
# keyword_mol: template-ID seed
# keyword_overlap: overlap value = only insert if at least this distance from all existing atoms
# keyword_maxtry: maxtry value = number of attempts to insert a particle before failure
create_atoms 0 random ${NCL} ${seed1} spawn_box mol CL ${seed1} overlap 1.0 maxtry 5000 #xls
create_atoms 0 random 25 ${seed1} spawn_box mol CL ${seed1} overlap 1.0 maxtry 5000 
create_atoms 0 random 25 3234 spawn_box mol CL ${seed1} overlap 1.0 maxtry 5000 
create_atoms 0 random 25 3234 spawn_box mol CL 3234 overlap 1.0 maxtry 5000 
Created 125 atoms
  using lattice units in orthogonal box = (-9.796741 -9.796741 -9.796741) to (9.796741 9.796741 9.796741)
  create_atoms CPU = 0.009 seconds
create_atoms 0 random ${NMO} ${seed2} spawn_box mol MO ${seed2} overlap 1.0 maxtry 5000 #mon
create_atoms 0 random 475 ${seed2} spawn_box mol MO ${seed2} overlap 1.0 maxtry 5000 
create_atoms 0 random 475 6321 spawn_box mol MO ${seed2} overlap 1.0 maxtry 5000 
create_atoms 0 random 475 6321 spawn_box mol MO 6321 overlap 1.0 maxtry 5000 
Created 1425 atoms
  using lattice units in orthogonal box = (-9.796741 -9.796741 -9.796741) to (9.796741 9.796741 9.796741)
  create_atoms CPU = 0.008 seconds

# Create patchy particles
group CrossLinker type 1 3
125 atoms in group CrossLinker
group Monomer type 2 4
1425 atoms in group Monomer
group Patches type 3 4
1050 atoms in group Patches
group CL type 1
25 atoms in group CL
group MO type 2
475 atoms in group MO
group PA type 3
100 atoms in group PA
group CM type 1 2
500 atoms in group CM

# Neighbor list
neighbor 1.8 bin # extra-distance style
#neigh_modify delay 0 every 1 check no
#neigh_modify exclude molecule/intra CrossLinker
#neigh_modify exclude molecule/intra Monomer

# COMPUTES

# Compute global kinetic and potential energy and temperature
compute t all temp
compute p all pressure t
compute ep all pe
compute ek all ke
variable eT equal etotal
variable eB equal ebond
variable eA equal eangle
variable eM equal emol
variable ec equal ecouple
variable eC equal econserve

# Potencial energy per pair-wise interaction
compute wcaPair all pair lj/cut/omp epair
compute patchPair all pair table/omp epair
compute swapPair all pair threebody/table epair

# Compute the pressure
compute press all pressure t ke virial
compute pressVirial all pressure t virial
compute pressVirialMod all pressure t pair bond angle

# Computes for the stress
compute cstress all stress/atom t ke pair bond angle
compute cstressVirial all stress/atom t virial
compute cstressVirialMod all stress/atom t pair bond angle
compute stress all reduce sum c_cstress[*]
compute stressVirial all reduce sum c_cstressVirial[*]
compute stressVirialMod all reduce sum c_cstressVirialMod[*]

# Displacement of the central particles
compute disp CM displace/atom
compute redDisp CM reduce ave c_disp[*] # All, because yes

# Get the number of central particles per cluster
compute clusters all aggregate/atom 0.6                             # Create the clusters
compute Nclpart CM chunk/atom c_clusters compress yes discard yes   # Get the number of clusters
compute clsize CM property/chunk Nclpart count                      # Counts the atoms in each chunk
compute idcl CM property/chunk Nclpart id                           # Get the ids of the clusters

# DUMPS and FIXES

thermo ${NsaveStress}
thermo 1000

# Save global energies and temperature
fix Energy all ave/time 1 ${Nsave} ${Nsave} c_t c_wcaPair c_patchPair c_swapPair c_ep c_ek v_eT v_ec v_eC c_p v_eB v_eA v_eM c_redDisp[*] file ${Dir}/${file1_name}
fix Energy all ave/time 1 1000 ${Nsave} c_t c_wcaPair c_patchPair c_swapPair c_ep c_ek v_eT v_ec v_eC c_p v_eB v_eA v_eM c_redDisp[*] file ${Dir}/${file1_name}
fix Energy all ave/time 1 1000 1000 c_t c_wcaPair c_patchPair c_swapPair c_ep c_ek v_eT v_ec v_eC c_p v_eB v_eA v_eM c_redDisp[*] file ${Dir}/${file1_name}
fix Energy all ave/time 1 1000 1000 c_t c_wcaPair c_patchPair c_swapPair c_ep c_ek v_eT v_ec v_eC c_p v_eB v_eA v_eM c_redDisp[*] file /home/franvt/GitRepos/molDynLammps/polymericGels/gel-bonds-1/data/0.050.30.05500-2026-01-20-143651/${file1_name}
fix Energy all ave/time 1 1000 1000 c_t c_wcaPair c_patchPair c_swapPair c_ep c_ek v_eT v_ec v_eC c_p v_eB v_eA v_eM c_redDisp[*] file /home/franvt/GitRepos/molDynLammps/polymericGels/gel-bonds-1/data/0.050.30.05500-2026-01-20-143651/system_assembly.fixf

# Save Pressure and Stress tensor
fix fixStress5 all ave/time 1 ${NsaveStress} ${NsaveStress} c_p c_press[*] c_pressVirial[*] c_pressVirialMod[*] c_stress[*] c_stressVirial[*] c_stressVirialMod[*] file ${Dir}/${file2_name}
fix fixStress5 all ave/time 1 1000 ${NsaveStress} c_p c_press[*] c_pressVirial[*] c_pressVirialMod[*] c_stress[*] c_stressVirial[*] c_stressVirialMod[*] file ${Dir}/${file2_name}
fix fixStress5 all ave/time 1 1000 1000 c_p c_press[*] c_pressVirial[*] c_pressVirialMod[*] c_stress[*] c_stressVirial[*] c_stressVirialMod[*] file ${Dir}/${file2_name}
fix fixStress5 all ave/time 1 1000 1000 c_p c_press[*] c_pressVirial[*] c_pressVirialMod[*] c_stress[*] c_stressVirial[*] c_stressVirialMod[*] file /home/franvt/GitRepos/molDynLammps/polymericGels/gel-bonds-1/data/0.050.30.05500-2026-01-20-143651/${file2_name}
fix fixStress5 all ave/time 1 1000 1000 c_p c_press[*] c_pressVirial[*] c_pressVirialMod[*] c_stress[*] c_stressVirial[*] c_stressVirialMod[*] file /home/franvt/GitRepos/molDynLammps/polymericGels/gel-bonds-1/data/0.050.30.05500-2026-01-20-143651/stress_assembly.fixf

# Save the global cluster information
fix 1 CM ave/time 1 1 ${Ndump} c_idcl c_clsize file ${Dir}/${file3_name} mode vector
fix 1 CM ave/time 1 1 1000 c_idcl c_clsize file ${Dir}/${file3_name} mode vector
fix 1 CM ave/time 1 1 1000 c_idcl c_clsize file /home/franvt/GitRepos/molDynLammps/polymericGels/gel-bonds-1/data/0.050.30.05500-2026-01-20-143651/${file3_name} mode vector
fix 1 CM ave/time 1 1 1000 c_idcl c_clsize file /home/franvt/GitRepos/molDynLammps/polymericGels/gel-bonds-1/data/0.050.30.05500-2026-01-20-143651/clust_assembly.fixf mode vector

# Save atom positions with cluster id
dump dumpID all custom ${Ndump} ${Dir}/traj/${file5_name} id mol c_clusters type x y z vx vy vz
dump dumpID all custom 1000 ${Dir}/traj/${file5_name} id mol c_clusters type x y z vx vy vz
dump dumpID all custom 1000 /home/franvt/GitRepos/molDynLammps/polymericGels/gel-bonds-1/data/0.050.30.05500-2026-01-20-143651/traj/${file5_name} id mol c_clusters type x y z vx vy vz
dump dumpID all custom 1000 /home/franvt/GitRepos/molDynLammps/polymericGels/gel-bonds-1/data/0.050.30.05500-2026-01-20-143651/traj/traj_assembly.*.dumpf id mol c_clusters type x y z vx vy vz
dump_modify dumpID pbc yes # remap atoms via periodic boundary conditions

# RUN SIMULATION

# Brownian Dynamics using Langevin Thermostat

timestep ${tstep}
timestep 0.001

fix VelVerlet all nve # Use Velocity Verlet integrator

# First elevate the temperature
fix ThermoLng all langevin 0.0 ${temp} ${damp} ${seed3} # Brownian Dynamics: langevin + nve
fix ThermoLng all langevin 0.0 0.05 ${damp} ${seed3} 
fix ThermoLng all langevin 0.0 0.05 1 ${seed3} 
fix ThermoLng all langevin 0.0 0.05 1 2010 
run ${stepsheat}
run 500000
WARNING: Using a manybody potential with bonds/angles/dihedrals and special_bond exclusions (src/pair.cpp:250)
Hybrid pair style last /omp style table/omp
Last active /omp style is angle_style harmonic/omp
Neighbor list info ...
  update: every = 1 steps, delay = 0 steps, check = yes
  max neighbors/atom: 2000, page size: 100000
  master list distance cutoff = 2.92
  ghost atom cutoff = 2.92
  binsize = 1.46, bins = 14 14 14
  7 neighbor lists, perpetual/occasional/extra = 6 1 0
  (1) pair zero, perpetual, skip from (7)
      attributes: half, newton on, omp
      pair build: skip/omp
      stencil: none
      bin: none
  (2) pair lj/cut/omp, perpetual, skip from (7)
      attributes: half, newton on, omp
      pair build: skip/omp
      stencil: none
      bin: none
  (3) pair table/omp, perpetual, skip from (7)
      attributes: half, newton on, omp
      pair build: skip/omp
      stencil: none
      bin: none
  (4) pair threebody/table, perpetual, skip from (6)
      attributes: full, newton on, omp
      pair build: skip/omp
      stencil: none
      bin: none
  (5) compute aggregate/atom, occasional, copy from (6)
      attributes: full, newton on, omp
      pair build: copy
      stencil: none
      bin: none
  (6) neighbor class addition, perpetual
      attributes: full, newton on, omp
      pair build: full/bin/omp
      stencil: full/bin/3d
      bin: standard
  (7) neighbor class addition, perpetual, half/full from (6)
      attributes: half, newton on, omp
      pair build: halffull/newton/omp
      stencil: none
      bin: none
Per MPI rank memory allocation (min/avg/max) = 19.65 | 19.65 | 19.65 Mbytes
   Step          Temp          E_pair         E_mol          TotEng         Press     
         0   0              0.00041490155  0.15480456     0.15521947    -0.21361809   
      1000   0.017876509    0              0.030955285    0.057752749   -0.0873399    
      2000   0.013939615    0              0.00033202702  0.02122796    -0.0029197643 
      3000   0.0033590418   0              0.0030852648   0.0081205769   0.026995229  
      4000   0.00036701341  0              0.0029466633   0.0034968283   0.025430898  
      5000   0.00064137453  0              0.00098857199  0.0019500131   0.013048493  
      6000   0.00077718336  0              0.00035972533  0.0015247483   0.002450137  
      7000   0.00069096179  0              0.00045140299  0.001487177   -0.002543474  
      8000   0.00074537223  0              0.00051913047  0.0016364675  -0.0033111761 
      9000   0.00081222975  0              0.00056484854  0.0017824071  -0.0021627654 
     10000   0.00091783603  0              0.00062536606  0.0020012319  -0.00054981401
     11000   0.0010404822  -5.1616387e-08  0.00067772054  0.0022373853   8.6787916e-05
     12000   0.0017075752  -0.0031917957   0.0013647913   0.00073270586  1.5088899e-06
     13000   0.0013610207  -0.0031577185   0.00097887038 -0.00013863421  0.00071969075
     14000   0.0013837385  -0.0032101766   0.00095410395 -0.00018180397  0.00035009515
     15000   0.0014498331  -0.0032167593   0.00094509228 -9.8320422e-05  0.00050379217
     16000   0.0023270255  -0.0062812656   0.0016514918  -0.0011414875   0.00042509826
     17000   0.0019621263  -0.0064488992   0.0012938743  -0.0022137343   0.00020344107
     18000   0.0017776316  -0.0064479888   0.0013463368  -0.0024369249   1.9388709e-05
     19000   0.0021486198  -0.0080026565   0.0012919477  -0.0034898584  -0.00026999954
     20000   0.0033224298  -0.014227531    0.0027333614  -0.0065137399  -0.00066881483
     21000   0.0026164039  -0.014351049    0.0017232274  -0.008705748    0.0011990056 
     22000   0.0032211317  -0.016072968    0.001766278   -0.0094781092   0.00076982657
     23000   0.0028791438  -0.017501336    0.0016803426  -0.011505064    0.0005898143 
     24000   0.0025939329  -0.01768488     0.0017199919  -0.012076499    0.0005685485 
     25000   0.0026590794  -0.018981223    0.0020909505  -0.012904226    0.00012910721
     26000   0.0027407821  -0.020575212    0.0023201038  -0.014146588   -0.00083482625
     27000   0.0029243936  -0.022285808    0.0025722619  -0.015329786   -5.0902212e-05
     28000   0.0028759949  -0.022552788    0.0019226872  -0.016318891    0.0002095556 
     29000   0.0031062589  -0.024131152    0.0024169682  -0.017057802   -0.00021292321
     30000   0.0038338101  -0.02758193     0.0031578934  -0.018677031   -0.0015389068 
     31000   0.0034407965  -0.028846876    0.0026171115  -0.021071899    0.00046325488
     32000   0.0041823666  -0.033557147    0.0035684586  -0.023719186   -0.00051053928
     33000   0.0038345295  -0.033824753    0.0025261327  -0.025550536    0.00025222466
     34000   0.0037636956  -0.035338016    0.0027032356  -0.02699288     0.0010476148 
     35000   0.0035737822  -0.035406169    0.0024698829  -0.027579072    0.00020027171
     36000   0.0054304688  -0.044511573    0.0040592351  -0.03231189     0.00027552271
     37000   0.0047832028  -0.047818923    0.0034554703  -0.037193277    0.00040679468
     38000   0.0046062334  -0.049523565    0.0031198442  -0.039498829   -0.0012996406 
     39000   0.0040361925  -0.049879225    0.0030027455  -0.040826097    0.00063223573
     40000   0.0047345799  -0.054506036    0.0036771626  -0.043731585    0.00014774488
     41000   0.0047317295  -0.057638126    0.0036595893  -0.046885521    0.00035095278
     42000   0.0048045281  -0.060911061    0.0037018537  -0.050007065   -0.00061953081
     43000   0.0049028446  -0.062139428    0.0032521543  -0.051537751   -2.7651165e-05
     44000   0.0057895474  -0.067515244    0.003780909   -0.055055616    0.00084588548
     45000   0.0047018924  -0.067525183    0.0033911253  -0.057085769    0.0014381187 
     46000   0.0050994446  -0.069088535    0.0032916939  -0.058152609   -0.00031411964
     47000   0.0055660251  -0.070844672    0.0037078326  -0.058793188    0.0013633416 
     48000   0.0060595579  -0.074020194    0.0040233564  -0.060913364    0.0019702637 
     49000   0.0074302921  -0.082912176    0.0050075799  -0.066766349    0.00024957522
     50000   0.0068878686  -0.087290852    0.0050064448  -0.071959269   -0.00018082634
     51000   0.0060664672  -0.090872845    0.0050490808  -0.076729934   -0.00047430372
     52000   0.0063853669  -0.094017562    0.0042921412  -0.08015355     0.0011170737 
     53000   0.0062403833  -0.097626803    0.0048805506  -0.083391716    0.00052970181
     54000   0.0066194386  -0.100528       0.0043465111  -0.086258736   -0.0015807027 
     55000   0.0070180963  -0.10589075     0.0047719443  -0.090598451    0.0012002955 
     56000   0.0065743397  -0.10886142     0.0041825601  -0.094823713   -0.00016180918
     57000   0.0057485313  -0.10941481     0.004278871   -0.096518709    0.00048136052
     58000   0.0062345627  -0.11108712     0.0041873095  -0.097553995    0.00049048248
     59000   0.0069458739  -0.11648212     0.005034837   -0.1010352      6.2069798e-05
     60000   0.0073421208  -0.12223959     0.0051626209  -0.10607089     0.00058670567
     61000   0.0072283647  -0.12627162     0.0047188953  -0.11071717    -0.00058596699
     62000   0.006782856   -0.1298629      0.0050010228  -0.11469416     0.0013528252 
     63000   0.0080534954  -0.1358337      0.0055403618  -0.11822089     0.00047869703
     64000   0.0069646128  -0.13742102     0.0055116805  -0.12146916     0.00011160852
     65000   0.0071256107  -0.1399756      0.0055281842  -0.12376589    -0.00073084896
     66000   0.0077480456  -0.1443732      0.0057463284  -0.1270123      0.00010751519
     67000   0.0081493957  -0.14696731     0.0061010694  -0.12865004     0.0042350026 
     68000   0.0083106975  -0.15143243     0.0055781184  -0.13339631     0.0023030811 
     69000   0.0075604692  -0.15355938     0.0051903907  -0.1370356      0.00072852808
     70000   0.0080640016  -0.15686362     0.0054644957  -0.13931092     0.0013765336 
     71000   0.0078266359  -0.15983734     0.0053529219  -0.14275204     0.0012551387 
     72000   0.0082043311  -0.16425206     0.006535402   -0.1454181      0.00087569537
     73000   0.0094432791  -0.17146006     0.0060851366  -0.15121914     0.0014228583 
     74000   0.0088771677  -0.1757564      0.0065064075  -0.15594283     0.0020668808 
     75000   0.0087305472  -0.1796185      0.0067708941  -0.15976023     0.0026128312 
     76000   0.0081662353  -0.17992033     0.0055984451  -0.16208044     0.00060814627
     77000   0.0087561155  -0.18304375     0.0057724701  -0.16414559     0.0011649254 
     78000   0.0088214179  -0.18723225     0.0067667079  -0.16724195     0.0019542479 
     79000   0.009288956   -0.19223441     0.0072230526  -0.17108692     0.0015658095 
     80000   0.0093224027  -0.19586185     0.0064892164  -0.17539805    -0.002086892  
     81000   0.0093553385  -0.20029697     0.0062317461  -0.18004127    -0.0013558199 
     82000   0.0089672167  -0.20193252     0.0063086348  -0.18218173    -0.00020087207
     83000   0.01015103    -0.20970814     0.0078063692  -0.18668505    -0.0011714609 
     84000   0.010666264   -0.21609751     0.0078068129  -0.19230162    -0.0014976934 
     85000   0.010655223   -0.22182972     0.0078512386  -0.19800596     0.0012364404 
     86000   0.0092593604  -0.22216127     0.0067555416  -0.20152565     0.0025135654 
     87000   0.0093563786  -0.22395159     0.0069887404  -0.20293734     0.00085598797
     88000   0.0089673149  -0.22392648     0.0063199131  -0.20416427     0.00082110134
     89000   0.01068372    -0.2291956      0.008229384   -0.20495097    -6.7039951e-05
     90000   0.011387451   -0.23349201     0.0074467791  -0.20897507    -0.0012783425 
     91000   0.011194809   -0.23880654     0.0081609439  -0.21386422    -0.00064402424
     92000   0.011527169   -0.24603072     0.0080620967  -0.22068902    -0.00063804078
     93000   0.0099925588  -0.24772802     0.0075607446  -0.22518811    -0.00020358591
     94000   0.0099265846  -0.24850365     0.0069926887  -0.22663069     0.00029594395
     95000   0.01081276    -0.25313508     0.0076130868  -0.22931332     0.00016123868
     96000   0.011509858   -0.25630394     0.0070579835  -0.23199231     0.00096028161
     97000   0.010666267   -0.25912198     0.0075265167  -0.23560638     0.0010892406 
     98000   0.010507067   -0.26242218     0.0079617616  -0.23870998    -0.003872571  
     99000   0.010551829   -0.26423698     0.0077680936  -0.24065136     0.0016782476 
    100000   0.01182308    -0.26992739     0.0091804119  -0.24302381    -0.0014026507 
    101000   0.012626651   -0.27686615     0.0085975759  -0.24934081    -0.0025854504 
    102000   0.01196697    -0.28067157     0.0083468204  -0.25438588     0.0010500441 
    103000   0.011693566   -0.28542236     0.0083709326  -0.25952239     0.0014532167 
    104000   0.011016892   -0.2860156      0.0077421774  -0.26175875     0.0011407117 
    105000   0.010677086   -0.28600167     0.007398932   -0.26259744     0.0025292636 
    106000   0.011174645   -0.28841037     0.0078762066  -0.26378301     0.0036365257 
    107000   0.011649096   -0.29545962     0.0093233414  -0.26867391    -0.0009949434 
    108000   0.011919328   -0.29832476     0.009097      -0.27136031    -0.0010741231 
    109000   0.01223394    -0.30161656     0.0089940973  -0.2742834      0.0015429194 
    110000   0.011566572   -0.30389489     0.0082830891  -0.27827313     5.4959559e-05
    111000   0.0120763     -0.3054219      0.0080266464  -0.27929249     0.0036590035 
    112000   0.011651081   -0.30695516     0.0079069742  -0.28158284    -0.00095989537
    113000   0.0112002     -0.30706517     0.0074007902  -0.28287492    -0.00031051695
    114000   0.012234248   -0.31159477     0.008605357   -0.28464988     0.00066777026
    115000   0.012046412   -0.31435001     0.009688356   -0.28660369    -0.00065147767
    116000   0.012076437   -0.31732333     0.0084756786  -0.29074469     0.0014886243 
    117000   0.012105855   -0.3190602      0.0086434494  -0.29226969     0.0012767829 
    118000   0.012288232   -0.3206211      0.0085986197  -0.29360203    -0.00084024562
    119000   0.014054447   -0.32626321     0.0099763588  -0.29521878    -0.00087564356
    120000   0.012914414   -0.32691583     0.0093095804  -0.29824712    -0.0023476249 
    121000   0.013142289   -0.33142476     0.0097908731  -0.30193318     0.0018871632 
    122000   0.013234609   -0.33422992     0.0087426505  -0.30564817     0.00042972682
    123000   0.013498982   -0.33800418     0.0096940768  -0.3080747      0.0018778008 
    124000   0.013028967   -0.34074778     0.01037925    -0.31083769    -6.6516278e-05
    125000   0.014464965   -0.34682648     0.009905861   -0.31523717     0.0023272586 
    126000   0.013380604   -0.34732752     0.00890102    -0.31836854    -0.00031656775
    127000   0.013328333   -0.348847       0.0092015173  -0.31966588     0.0021833539 
    128000   0.012780813   -0.34902175     0.0088019089  -0.32106099     0.003481204  
    129000   0.013576646   -0.35098704     0.0089116416  -0.32172356     0.0017630809 
    130000   0.013315178   -0.35240078     0.0096601208  -0.32278078     0.00029625229
    131000   0.013886694   -0.35485382     0.009499069   -0.32453815     0.0038826016 
    132000   0.01458883    -0.35932814     0.0099288694  -0.32753014     0.00027440465
    133000   0.014950826   -0.36252506     0.0091594372  -0.33095386     9.8774428e-05
    134000   0.013708885   -0.36298478     0.0092531523  -0.33318157     0.0017141696 
    135000   0.014702274   -0.36728967     0.010706025   -0.33454447    -0.00083491328
    136000   0.015607305   -0.37135175     0.010947291   -0.3370086     -0.00048443749
    137000   0.014510943   -0.37427232     0.010385236   -0.34213471    -0.0031246937 
    138000   0.014687518   -0.3766021      0.010357794   -0.34422724     0.0014167031 
    139000   0.015421742   -0.37983531     0.01040796    -0.34630966     0.0012957801 
    140000   0.016609253   -0.3844096      0.01140208    -0.34810971    -0.0018366126 
    141000   0.015598296   -0.38562813     0.011322564   -0.35092321    -0.00011689049
    142000   0.014775886   -0.38607724     0.010042903   -0.35388481    -0.0013497908 
    143000   0.015980998   -0.39013051     0.010329097   -0.35584539    -0.00024722132
    144000   0.01527004    -0.39310544     0.01050498    -0.35971018     0.0008768301 
    145000   0.01509305    -0.39505777     0.010454414   -0.36197838    -0.0020416265 
    146000   0.015348537   -0.396657       0.010225617   -0.36342343    -0.0024858424 
    147000   0.015294381   -0.39806794     0.010896932   -0.36424424    -0.00043361815
    148000   0.014868008   -0.39824073     0.010359674   -0.36559343     0.0012490479 
    149000   0.01595018    -0.40124624     0.011644683   -0.36569173    -0.00017727277
    150000   0.016364016   -0.4057791      0.011091934   -0.37015698     0.00062692017
    151000   0.017282079   -0.41172628     0.011694084   -0.3741258      0.003738636  
    152000   0.016802538   -0.4153277      0.011322957   -0.37881719     0.00042387449
    153000   0.018082027   -0.42190289     0.012079226   -0.38271813     0.0018401962 
    154000   0.016340703   -0.42416173     0.011812704   -0.38785378    -0.00047990022
    155000   0.015661887   -0.42571651     0.011971203   -0.39026764    -0.0014659275 
    156000   0.016420051   -0.42660275     0.010733428   -0.39125514    -0.0028753372 
    157000   0.016518721   -0.42950923     0.011353694   -0.39339344    -6.9435284e-05
    158000   0.016669749   -0.43210773     0.011405989   -0.39571325     0.005096507  
    159000   0.017937207   -0.43793414     0.012417014   -0.39862868     0.0025694888 
    160000   0.017313097   -0.44005764     0.011996708   -0.40210804     0.00065450105
    161000   0.017453265   -0.44362131     0.012087123   -0.40537118     0.0018003941 
    162000   0.016392903   -0.44562125     0.012625519   -0.40842224    -0.0014867255 
    163000   0.017037023   -0.44709817     0.011421889   -0.41013723     0.00544937   
    164000   0.016911479   -0.45311521     0.013634304   -0.41413005     0.00096408229
    165000   0.017622067   -0.45666612     0.013299889   -0.41695018     0.0019145018 
    166000   0.017120801   -0.45875273     0.012151872   -0.42093623    -2.2523172e-05
    167000   0.016726901   -0.46039683     0.012562278   -0.42276039     0.0011530584 
    168000   0.01805855    -0.46244624     0.011833367   -0.42354253     0.0005838551 
    169000   0.018511424   -0.46516402     0.012055042   -0.42535975    -0.001549996  
    170000   0.017597605   -0.46704688     0.012286835   -0.42838067    -0.00058477189
    171000   0.017436219   -0.46823697     0.012972133   -0.42912738    -0.0016677315 
    172000   0.01791094    -0.46979394     0.012057946   -0.43088692     0.0012109567 
    173000   0.017211171   -0.47109997     0.012251841   -0.43304802    -0.00023595565
    174000   0.019099938   -0.47456332     0.012588238   -0.43334366    -0.0030081511 
    175000   0.019290644   -0.47621613     0.013126331   -0.4341725      0.0019645963 
    176000   0.017712073   -0.47613606     0.012221202   -0.43736389     0.00077589673
    177000   0.018022482   -0.47987633     0.013058243   -0.4398018      0.0009853044 
    178000   0.018250037   -0.48242007     0.013102701   -0.44195997     0.002370803  
    179000   0.018490365   -0.48560189     0.013131127   -0.44475311    -0.0013993925 
    180000   0.018323411   -0.48814745     0.013240532   -0.44743954     0.001919687  
    181000   0.019283145   -0.4902868      0.012570828   -0.44880992     0.0014405039 
    182000   0.019354913   -0.49234774     0.013234929   -0.45009917     0.0060781898 
    183000   0.018722993   -0.49560726     0.012510268   -0.45503062     0.002032265  
    184000   0.019900104   -0.49912023     0.013777026   -0.45551231     0.0022404069 
    185000   0.019538933   -0.50135109     0.012804175   -0.45925742     0.00046154849
    186000   0.019903727   -0.50248339     0.012770075   -0.45987699     0.0034928384 
    187000   0.020006808   -0.50404364     0.012630221   -0.46142257     0.0027752367 
    188000   0.019536485   -0.50681783     0.013232931   -0.46429908     0.0010759982 
    189000   0.019565778   -0.5085817      0.01381674    -0.46543523     0.0022312135 
    190000   0.018673193   -0.50901423     0.01325123    -0.46777129    -0.00021092137
    191000   0.020115866   -0.51042883     0.013438901   -0.4668356      0.002742643  
    192000   0.020607968   -0.51323767     0.013200195   -0.46914547     0.0028376315 
    193000   0.019769419   -0.51372556     0.013993855   -0.47009671     0.0027293649 
    194000   0.019283436   -0.51370739     0.013769927   -0.47103097     0.0023502509 
    195000   0.019610157   -0.51395226     0.014149861   -0.47040614    -3.7081587e-05
    196000   0.020232857   -0.51547165     0.013794703   -0.47134724     0.0038603881 
    197000   0.020742264   -0.51668134     0.013975093   -0.47161292     0.0044327902 
    198000   0.021736795   -0.52217104     0.014469461   -0.47511742     0.0029062311 
    199000   0.020833529   -0.52487604     0.014560696   -0.47908521     0.0010154502 
    200000   0.019817961   -0.52736808     0.014646242   -0.48301408     0.00042672618
    201000   0.020058869   -0.52702638     0.014666695   -0.4822908      0.0021646219 
    202000   0.020435553   -0.52890491     0.014612028   -0.48365933    -0.00045670853
    203000   0.020404067   -0.52926453     0.013866352   -0.48481182     0.00056156648
    204000   0.021191561   -0.53120034     0.015448137   -0.48398537    -0.0016515186 
    205000   0.022295479   -0.53770198     0.015294173   -0.48898617     0.0036729091 
    206000   0.020843708   -0.53994219     0.015659497   -0.4930373      0.0015457719 
    207000   0.020462157   -0.53992282     0.01476885    -0.49448054    -0.00035116939
    208000   0.020876379   -0.54156691     0.014765648   -0.49550689    -0.0023325041 
    209000   0.022956925   -0.54544279     0.016156195   -0.49487342    -0.00068972119
    210000   0.021961238   -0.54591836     0.015140115   -0.49785764    -0.0013718003 
    211000   0.021806451   -0.54880855     0.015741467   -0.50037851     0.0031565737 
    212000   0.021415859   -0.54922545     0.014949297   -0.50217309     0.0041290437 
    213000   0.023291045   -0.55634052     0.015863098   -0.5055634     -0.00080434251
    214000   0.023138459   -0.55931175     0.015562608   -0.50906384    -4.2544954e-05
    215000   0.021962079   -0.56097344     0.015404049   -0.51264752     0.0028628544 
    216000   0.02206976    -0.56120937     0.014928156   -0.51319793     0.0021012427 
    217000   0.022417662   -0.56533247     0.017917328   -0.51381035    -0.00042637329
    218000   0.024200327   -0.56819372     0.015678074   -0.51623857     7.9781483e-05
    219000   0.02316416    -0.5738548      0.016745975   -0.522385       0.0017962051 
    220000   0.022810444   -0.57575435     0.016202212   -0.52535855    -0.0017230829 
    221000   0.022890243   -0.57808611     0.015927332   -0.52784557    -0.0027817206 
    222000   0.021835958   -0.57784951     0.01526525    -0.52985146     0.0012458273 
    223000   0.0224955     -0.58046993     0.0161544     -0.53059405     0.0021998156 
    224000   0.022481769   -0.58194274     0.01665666    -0.53158519    -0.0042225923 
    225000   0.022895109   -0.58325645     0.015834701   -0.53310124     0.0012278096 
    226000   0.023004734   -0.58317271     0.01566465    -0.53302322     0.0011017434 
    227000   0.022731215   -0.58301754     0.015768727   -0.53317399     0.0045300853 
    228000   0.023195505   -0.58343116     0.01580938    -0.53285097    -0.00051224582
    229000   0.023495402   -0.5845709      0.016486333   -0.5328642      0.0023036664 
    230000   0.024765228   -0.58932755     0.017504811   -0.53469886     0.00096994305
    231000   0.024532714   -0.59229914     0.017615847   -0.53790796    -0.002370861  
    232000   0.024182739   -0.59236455     0.016663316   -0.53945052     0.0013652051 
    233000   0.023453253   -0.59392158     0.017179376   -0.54158503     0.0011007003 
    234000   0.023912885   -0.59683592     0.016451243   -0.54453849     0.0013553336 
    235000   0.025448627   -0.59980855     0.017700961   -0.54395927     0.00063014387
    236000   0.024519086   -0.60318546     0.017788893   -0.54864167    -0.0027909045 
    237000   0.025796323   -0.60735292     0.017601446   -0.55108195     0.002030593  
    238000   0.025010347   -0.60934358     0.017635775   -0.55421649     0.001871887  
    239000   0.025029207   -0.61145666     0.017217819   -0.55671926     0.0018480076 
    240000   0.024362378   -0.61216366     0.016587797   -0.55905587     0.00063821615
    241000   0.023420607   -0.61182048     0.016598201   -0.56011403    -0.0019157896 
    242000   0.023915565   -0.61314507     0.016110897   -0.56118397     0.0017064743 
    243000   0.024225897   -0.61543451     0.017236457   -0.56188265     0.002120338  
    244000   0.023902515   -0.61693164     0.018081636   -0.56301937    -0.0023089493 
    245000   0.024085696   -0.61866037     0.018017879   -0.56453725    -0.0030413125 
    246000   0.024600228   -0.61868572     0.017374975   -0.56443421    -0.0017781569 
    247000   0.025072365   -0.61840973     0.017449315   -0.56337613     0.0023496587 
    248000   0.024048017   -0.61994819     0.017484455   -0.56641498     0.0031498431 
    249000   0.026067341   -0.62410068     0.018652479   -0.56637242     0.002380728  
    250000   0.025873734   -0.62420275     0.017654607   -0.56776258    -0.0018489603 
    251000   0.025794957   -0.62336972     0.017560614   -0.56714164     0.00031240998
    252000   0.025829062   -0.62597377     0.017804037   -0.56945113     0.0039643939 
    253000   0.025365538   -0.62820615     0.017539335   -0.57264305     0.00033076318
    254000   0.026104827   -0.62871269     0.018494802   -0.57108591     0.00041213163
    255000   0.027395523   -0.63076692     0.018415111   -0.57128504     0.0047429554 
    256000   0.027108184   -0.6321073      0.018452396   -0.57301886     0.00062699502
    257000   0.025613919   -0.63314303     0.01772516    -0.57702178    -0.0042382589 
    258000   0.025957762   -0.63551518     0.01828383    -0.57831983     0.0012172319 
    259000   0.025538898   -0.63693242     0.018403412   -0.58024537    -0.00079783728
    260000   0.027611081   -0.63810268     0.018337568   -0.57837521    -0.00064005565
    261000   0.027833363   -0.64196424     0.019054267   -0.58118687    -0.0021152385 
    262000   0.027324694   -0.64438944     0.018892492   -0.58453635     0.0076809039 
    263000   0.02739894    -0.64507775     0.018397496   -0.58560836    -0.00022171928
    264000   0.027031521   -0.64494227     0.018127221   -0.58629392    -0.0036738329 
    265000   0.027216873   -0.64602548     0.01951704    -0.58570947     0.0029992266 
    266000   0.028597709   -0.64644509     0.018294004   -0.58528219    -0.00056377103
    267000   0.027344892   -0.64621068     0.018530599   -0.5866892      0.00064952912
    268000   0.028194554   -0.64983708     0.017824595   -0.58974794    -0.0039131571 
    269000   0.028424179   -0.65088007     0.018336589   -0.58993472    -0.00092481715
    270000   0.026871596   -0.65108556     0.018345075   -0.59245909     0.0023552372 
    271000   0.027639966   -0.65437454     0.020396828   -0.59254451     0.0016954972 
    272000   0.027776693   -0.65657723     0.019325956   -0.59561312     0.0016256706 
    273000   0.028967736   -0.65919724     0.019710173   -0.59606349     0.0012377926 
    274000   0.027943191   -0.6596537      0.019847779   -0.59791817     0.00019012753
    275000   0.028520024   -0.66025352     0.019309111   -0.59819197     0.0078044322 
    276000   0.027491009   -0.65994112     0.019190926   -0.59954029     0.0033475353 
    277000   0.028097973   -0.65998812     0.019026973   -0.59884138     0.0023944669 
    278000   0.028920894   -0.66130548     0.01962179    -0.59833034     0.00084003454
    279000   0.029553193   -0.66493801     0.020473124   -0.6001637      0.0026891852 
    280000   0.030672026   -0.66915735     0.021406889   -0.6017721      0.0022735717 
    281000   0.030833066   -0.67350727     0.021016703   -0.60627081     0.0035185526 
    282000   0.029311592   -0.67698823     0.022286617   -0.61076259    -0.00061482481
    283000   0.028071596   -0.67687477     0.019779717   -0.61501483    -0.0018028999 
    284000   0.029014828   -0.67839834     0.019476503   -0.61542767     0.0049243417 
    285000   0.028265125   -0.67929519     0.021372741   -0.61555211     0.0031160721 
    286000   0.028997596   -0.68066042     0.01897693    -0.61821515     0.0022594911 
    287000   0.028326969   -0.68112445     0.0197053     -0.6189561     -0.004994334  
    288000   0.028256421   -0.68012468     0.019941227   -0.61782617    -0.0017674895 
    289000   0.029108531   -0.68035925     0.020386248   -0.61633837    -0.0015988751 
    290000   0.028222377   -0.68298396     0.020617479   -0.62006023     0.0035253743 
    291000   0.030402848   -0.68500766     0.019787696   -0.61964511     0.0035835482 
    292000   0.030857003   -0.6862429      0.021274206   -0.61871305     0.0056165131 
    293000   0.029904389   -0.68828531     0.020713228   -0.62274444     0.00428923   
    294000   0.029488918   -0.69022249     0.020665627   -0.62535202    -0.00031405946
    295000   0.030551848   -0.69225288     0.021478981   -0.62497569     0.0031540879 
    296000   0.030174988   -0.69268144     0.020787373   -0.62666079     0.002923642  
    297000   0.029326585   -0.69308649     0.020231549   -0.62889345    -0.0015470267 
    298000   0.029943116   -0.69249049     0.020056458   -0.62754834     0.0056107214 
    299000   0.030504698   -0.69406851     0.02018262    -0.62815836    -0.0021931229 
    300000   0.029962132   -0.6959487      0.019962467   -0.63107203     0.0021368846 
    301000   0.031152545   -0.69846361     0.020049001   -0.63171594    -0.0049620243 
    302000   0.030617126   -0.69960558     0.02114742    -0.6325621      0.0037793971 
    303000   0.030439765   -0.70225537     0.022123273   -0.6345019      0.0068211131 
    304000   0.032092764   -0.70387391     0.021682519   -0.6340833     -0.00098977691
    305000   0.030577668   -0.70560447     0.022160633   -0.63760693     0.0033886194 
    306000   0.030561542   -0.70477937     0.021892783   -0.63707385     0.005063807  
    307000   0.029795374   -0.70548355     0.021353062   -0.63946626     0.0038104482 
    308000   0.032864538   -0.71074555     0.023131489   -0.63834906     0.0024088566 
    309000   0.032124393   -0.71341114     0.022060039   -0.6431956      0.0033281839 
    310000   0.031537457   -0.71540721     0.022879663   -0.64525188    -0.0025675796 
    311000   0.031260629   -0.71920304     0.022629995   -0.64971235    -0.00093383336
    312000   0.031063861   -0.71842213     0.02115516    -0.65070124     0.0022439228 
    313000   0.031375967   -0.72048674     0.022928737   -0.65052442     0.00026145061
    314000   0.031544484   -0.72039632     0.023583258   -0.64952686     0.0024888027 
    315000   0.031830524   -0.72030389     0.021859198   -0.65072971     0.0039670114 
    316000   0.031991336   -0.7199348      0.021182322   -0.65079644     0.0011267066 
    317000   0.03344917    -0.72389362     0.021862011   -0.65189022     0.0018758249 
    318000   0.032654076   -0.72561318     0.022986113   -0.65367755    -0.00038669228
    319000   0.034243363   -0.72962897     0.02167454    -0.65662253     0.0050937766 
    320000   0.033845949   -0.73144136     0.022874749   -0.65783044     0.0030558945 
    321000   0.033682742   -0.73178865     0.022349146   -0.65894799     0.001037419  
    322000   0.032967996   -0.73425041     0.024207157   -0.66062316     0.0022982365 
    323000   0.032439417   -0.73380521     0.023172621   -0.66200485     0.00083019767
    324000   0.031944304   -0.73624526     0.022367746   -0.66599197    -0.00094961032
    325000   0.033185506   -0.73742413     0.022892886   -0.6647851     -0.003241016  
    326000   0.033071202   -0.73757299     0.024301683   -0.66369651    -0.0024950766 
    327000   0.033891342   -0.73763854     0.021704414   -0.66512991     0.0039966462 
    328000   0.033793294   -0.73885466     0.024183965   -0.66401346     0.0021618376 
    329000   0.033053836   -0.73963739     0.023651054   -0.66643757     0.0023065318 
    330000   0.033432434   -0.74169207     0.022980128   -0.66859564    -0.00088114585
    331000   0.033118879   -0.74196577     0.022687781   -0.66963172    -0.003867315  
    332000   0.035021786   -0.74482103     0.024273187   -0.66804906     0.009300461  
    333000   0.034398063   -0.74664057     0.023308303   -0.67176846     0.00025972171
    334000   0.034027123   -0.74823677     0.023610421   -0.67361859     0.0024770956 
    335000   0.035306977   -0.75208558     0.023207502   -0.67595178     0.0033711408 
    336000   0.03433279    -0.7531971      0.023755617   -0.67797552    -0.0025792392 
    337000   0.033647387   -0.75325278     0.021981937   -0.68083233     0.0019882213 
    338000   0.032748302   -0.75351496     0.022854731   -0.68156946    -0.001066574  
    339000   0.035659696   -0.75641826     0.024665032   -0.67829819     0.00083886111
    340000   0.034531199   -0.75851955     0.025205299   -0.68155087     0.0041806306 
    341000   0.034657115   -0.76115152     0.025588481   -0.6836109      0.005556734  
    342000   0.033860944   -0.76127616     0.024484364   -0.68603315     0.001773794  
    343000   0.035110951   -0.764786       0.02444624    -0.68770731     0.001767508  
    344000   0.034372275   -0.76446435     0.026007753   -0.68693145     0.0044311093 
    345000   0.035408733   -0.76378645     0.023963687   -0.68674393     0.0081968698 
    346000   0.033728932   -0.76520157     0.022703175   -0.69193764     0.0078749086 
    347000   0.032819928   -0.76438508     0.023234935   -0.69195202     0.0059458149 
    348000   0.034853531   -0.7643835      0.023575858   -0.68856108    -0.00029908459
    349000   0.035416405   -0.76664358     0.024323997   -0.68922924     0.0031557632 
    350000   0.037130232   -0.76776992     0.025105585   -0.68700492     0.0010218365 
    351000   0.036317257   -0.77030485     0.02429095    -0.69157316     0.00286792   
    352000   0.037204312   -0.77392626     0.025989649   -0.69216615     0.00065505564
    353000   0.035190808   -0.77448727     0.024477347   -0.69725776     0.0047426097 
    354000   0.037352902   -0.77703654     0.024986542   -0.69605679     0.0017843257 
    355000   0.034914722   -0.77705466     0.024445297   -0.70027107     0.00034391273
    356000   0.035155413   -0.77660474     0.026046078   -0.69785957     0.00079419225
    357000   0.035989927   -0.77709574     0.025201503   -0.69794417     0.0042290652 
    358000   0.036019036   -0.77774022     0.025544441   -0.69820208     0.0099278094 
    359000   0.03686683    -0.78118465     0.0264599     -0.69946018    -0.0010333025 
    360000   0.0369109     -0.78259421     0.026673483   -0.7005901      0.0022120317 
    361000   0.036910025   -0.78287681     0.026563738   -0.70098375     0.010407901  
    362000   0.035352404   -0.78341078     0.026180346   -0.70423604    -0.00014591287
    363000   0.036203147   -0.78364581     0.024869582   -0.70450654    -0.0031109413 
    364000   0.036116691   -0.7847667      0.025488636   -0.70513798     0.00024076925
    365000   0.037183463   -0.78603505     0.026587755   -0.70370808    -0.0010221844 
    366000   0.036927279   -0.78672405     0.025550117   -0.70581875     0.0059357305 
    367000   0.036314762   -0.78743907     0.026252477   -0.7067496     -0.0055681259 
    368000   0.037123569   -0.78695035     0.025470154   -0.70583076     0.0038358825 
    369000   0.036003718   -0.78683193     0.025583782   -0.70727741    -0.0011042578 
    370000   0.038809299   -0.78884853     0.027522468   -0.70314967     0.0033475141 
    371000   0.037107944   -0.78918317     0.026199992   -0.70735717     0.0097519116 
    372000   0.038101937   -0.78972877     0.025512693   -0.70710004     0.0084854586 
    373000   0.037345334   -0.79066919     0.025201224   -0.70948611     0.0047295964 
    374000   0.040145658   -0.79139955     0.026314331   -0.70490558     0.007825467  
    375000   0.038497743   -0.79249056     0.027529837   -0.70725136    -0.0019705628 
    376000   0.03682768    -0.79247094     0.025795508   -0.71146955     0.0060427484 
    377000   0.038007393   -0.79315073     0.025505174   -0.71067125    -0.0051973861 
    378000   0.038498304   -0.79285259     0.026922909   -0.70821948     0.0043666018 
    379000   0.03869864    -0.79406035     0.027328334   -0.70872151     0.006240328  
    380000   0.04046135    -0.79608942     0.026350414   -0.70908613     0.0052782853 
    381000   0.038017159   -0.79656993     0.026902325   -0.71267866     0.0011452211 
    382000   0.038520539   -0.79706204     0.027561719   -0.71175679     0.0073795624 
    383000   0.038588061   -0.79625236     0.026711211   -0.7116964      0.010394503  
    384000   0.038202602   -0.79557738     0.027462231   -0.71084822     0.002823555  
    385000   0.040435414   -0.79679036     0.027098694   -0.70907768     0.0024767707 
    386000   0.039527487   -0.7985245      0.027090306   -0.71218122     0.0090485497 
    387000   0.040605663   -0.80200855     0.028680945   -0.71245841     0.0054479993 
    388000   0.038226207   -0.80162848     0.027443532   -0.71688264     0.0083124279 
    389000   0.040160414   -0.8029043      0.027519357   -0.71518318     0.00011100729
    390000   0.04069518    -0.80316406     0.028396275   -0.7137644      0.0071671274 
    391000   0.040535406   -0.80188882     0.028742309   -0.71238263     0.0046992449 
    392000   0.039940687   -0.80219079     0.028796409   -0.713522       0.0054114811 
    393000   0.039374415   -0.8028443      0.02657474    -0.71724604     0.0021106701 
    394000   0.038971939   -0.8035727      0.026165617   -0.71898689     0.0051377531 
    395000   0.040199853   -0.80613361     0.028192604   -0.71768013     0.00027363045
    396000   0.040227676   -0.80486194     0.028234173   -0.71632518     0.0047996157 
    397000   0.039526768   -0.80461862     0.028787184   -0.71657954     0.006659992  
    398000   0.040461047   -0.80543858     0.028777478   -0.71600869     0.0049163933 
    399000   0.041165314   -0.80580832     0.027505937   -0.71659425     0.0054274542 
    400000   0.042279698   -0.80989948     0.029631944   -0.7168889      0.00017681181
    401000   0.040160119   -0.81175507     0.028453469   -0.72310028     0.0076852478 
    402000   0.04124627    -0.81163855     0.028361879   -0.72144719     0.0074941731 
    403000   0.040955168   -0.81447578     0.029262946   -0.72381972     0.00076737116
    404000   0.040518597   -0.81561663     0.0299195     -0.72495845     0.00091258829
    405000   0.040695087   -0.81694409     0.028537133   -0.72740371     0.0021259109 
    406000   0.041639335   -0.81734831     0.028606696   -0.72632291    -0.0013910464 
    407000   0.040140021   -0.81653316     0.028736494   -0.72762548     0.0043808408 
    408000   0.041957517   -0.81915741     0.027876447   -0.7283853      0.0033371854 
    409000   0.041769341   -0.81983317     0.029210834   -0.72800875     0.0077184107 
    410000   0.042797853   -0.82100556     0.030007193   -0.726843      -4.4208481e-05
    411000   0.041576668   -0.82131148     0.029824192   -0.72916252    -0.0021269397 
    412000   0.041800345   -0.82080522     0.028026879   -0.73011827     0.0041680552 
    413000   0.040350237   -0.82014321     0.029630472   -0.73002643    -0.0010506136 
    414000   0.041475195   -0.82096412     0.029509401   -0.72928206    -0.0012148539 
    415000   0.041353091   -0.82106342     0.029951392   -0.72912241    -0.0094699061 
    416000   0.041954346   -0.82326831     0.030261245   -0.73011615     0.005604014  
    417000   0.041486254   -0.82341238     0.030594138   -0.73062901    -0.0031031621 
    418000   0.04287844    -0.82204644     0.029936043   -0.72783423     0.0026969623 
    419000   0.043792768   -0.82247432     0.030458863   -0.72636868     0.0031897477 
    420000   0.043084656   -0.82408642     0.030590307   -0.72891083     0.001835045  
    421000   0.043382402   -0.8240018      0.029844079   -0.72912611     0.0051057781 
    422000   0.042609358   -0.82453976     0.029918977   -0.73074799    -0.00088029872
    423000   0.042991983   -0.82576814     0.029565072   -0.7317567     -0.00025058028
    424000   0.042829418   -0.82594284     0.028614184   -0.73312598     0.0036290343 
    425000   0.042160682   -0.82613861     0.031278681   -0.73165971     0.0012554496 
    426000   0.043544621   -0.8266049      0.031256986   -0.73007312     0.0028773191 
    427000   0.044245092   -0.82637816     0.029473703   -0.73057964     0.00061817424
    428000   0.042895131   -0.82679285     0.031513162   -0.7309785      0.003276318  
    429000   0.042770054   -0.8267644      0.030935091   -0.73171562     0.0016323739 
    430000   0.042601081   -0.82811228     0.031070019   -0.73318186     0.005659929  
    431000   0.042439629   -0.82892341     0.03105552    -0.73424952     0.0074155543 
    432000   0.041767214   -0.82971639     0.032065887   -0.73504011     0.00094120105
    433000   0.043759817   -0.83224197     0.032643539   -0.73400105     0.0076449459 
    434000   0.044612228   -0.83481988     0.030644567   -0.73730014     0.008428908  
    435000   0.045348936   -0.83518871     0.031196266   -0.73601293     0.005315479  
    436000   0.043968898   -0.83463688     0.030401035   -0.73832505     0.004517452  
    437000   0.044140598   -0.83463317     0.03017106    -0.73829393     0.007922038  
    438000   0.044395208   -0.83425293     0.031087517   -0.73661557     0.0013950223 
    439000   0.043049939   -0.83462827     0.030432739   -0.73966228     0.0049268817 
    440000   0.04384607    -0.83622751     0.030074931   -0.7404259      0.0048872813 
    441000   0.044314272   -0.83621086     0.030174886   -0.73960745     0.0043721823 
    442000   0.045202728   -0.83736921     0.031920815   -0.73768805     0.0050185959 
    443000   0.046321428   -0.83753606     0.032110523   -0.73598823     0.0013380946 
    444000   0.046730815   -0.8425313      0.033504599   -0.7389757      0.0062020527 
    445000   0.044131699   -0.84416882     0.032997174   -0.74501681     0.0017184224 
    446000   0.043996861   -0.84594267     0.031499864   -0.7484901      0.0067297346 
    447000   0.044422138   -0.84538418     0.030297505   -0.74849646     0.0030347542 
    448000   0.043607458   -0.84540827     0.029893196   -0.75014609     0.0074661814 
    449000   0.046156167   -0.84624183     0.030760042   -0.7462922      0.0029743006 
    450000   0.044597133   -0.84660047     0.03206748    -0.74768045    -0.00069451078
    451000   0.046018313   -0.84598676     0.031050828   -0.745953       0.0084801389 
    452000   0.046218279   -0.85008722     0.03118173    -0.7496228      0.0046863211 
    453000   0.045112585   -0.8490628      0.032570284   -0.7488673      0.0020976988 
    454000   0.044469466   -0.84985266     0.030698788   -0.75249271     0.0020361888 
    455000   0.045308454   -0.84885955     0.03241176    -0.74852895    -0.00099302658
    456000   0.045991493   -0.848769       0.032126201   -0.74770007     0.0075950032 
    457000   0.04630967    -0.85002297     0.033717764   -0.74688552     0.0018566359 
    458000   0.045685826   -0.84795148     0.034770968   -0.74469599     0.0043005035 
    459000   0.046227318   -0.84973961     0.032023372   -0.74842        0.0025322425 
    460000   0.045604165   -0.84908929     0.033104857   -0.74762232     0.0048878329 
    461000   0.045163401   -0.84874932     0.032222746   -0.74882518     0.0032418333 
    462000   0.046147147   -0.85017887     0.031004244   -0.74999856     0.0060828798 
    463000   0.048182876   -0.85051315     0.031792373   -0.7464931      0.0033869465 
    464000   0.049076089   -0.85592849     0.035671265   -0.74669058    -0.0026596666 
    465000   0.048075258   -0.85493575     0.032442935   -0.75042645     0.00092224091
    466000   0.046827865   -0.85514238     0.032784168   -0.75216173     0.010893057  
    467000   0.047239232   -0.85696173     0.033510543   -0.75263805    -0.00068681614
    468000   0.048376925   -0.85919513     0.032113748   -0.75456281     0.0011436613 
    469000   0.047015587   -0.86047272     0.033434982   -0.75655985     0.012095678  
    470000   0.046783566   -0.86316982     0.034633499   -0.75840625     0.0033123864 
    471000   0.04884796    -0.86253455     0.031523188   -0.75778669     0.00056466098
    472000   0.046411285   -0.86234623     0.03399754    -0.75877667     0.0010196972 
    473000   0.048169027   -0.86425545     0.033519897   -0.75852863     0.0022847462 
    474000   0.048839481   -0.86501827     0.034986436   -0.75681988     0.0054948745 
    475000   0.049361093   -0.86545015     0.035689641   -0.75576664     0.00075226271
    476000   0.04865342    -0.86562676     0.034878456   -0.75781526    -0.0026134489 
    477000   0.047404422   -0.86441519     0.036985926   -0.7563685      0.00056437234
    478000   0.047883503   -0.86501098     0.036024761   -0.75720731     0.0057128813 
    479000   0.049255765   -0.86842747     0.03441524    -0.76017625     0.0074194516 
    480000   0.04763886    -0.86940109     0.03542522    -0.76256368     0.0052968104 
    481000   0.049350621   -0.87074809     0.033944588   -0.76282533     0.0059851783 
    482000   0.048451558   -0.87187318     0.033564956   -0.76567778     0.0059683303 
    483000   0.048836732   -0.87045421     0.035315032   -0.76193134     0.0070396129 
    484000   0.050606115   -0.87099637     0.034784949   -0.76035122     0.011687607  
    485000   0.050028821   -0.87183735     0.035014244   -0.76182829     0.0082896182 
    486000   0.049492335   -0.87182983     0.034898269   -0.76274095     0.0042916576 
    487000   0.048662681   -0.87279509     0.03528786    -0.7645603      0.0020168735 
    488000   0.050367766   -0.87515522     0.033943921   -0.76570839    -5.9241526e-05
    489000   0.04906976    -0.8764261      0.033840102   -0.76902884     0.0028680106 
    490000   0.050795966   -0.8797455      0.034669231   -0.76893148     0.0047552594 
    491000   0.051030161   -0.88129259     0.035586444   -0.76921029     0.0088706897 
    492000   0.051453058   -0.88089403     0.036545468   -0.76721877     0.0062782584 
    493000   0.050297493   -0.88411863     0.035067896   -0.77365317     0.0045180291 
    494000   0.049643593   -0.88427682     0.033782439   -0.77607704     0.0024595586 
    495000   0.050372446   -0.88610961     0.034294465   -0.77630522    -0.00045124804
    496000   0.050722149   -0.88510902     0.03440624    -0.77466864     0.0072438472 
    497000   0.050084701   -0.88662259     0.034724883   -0.77681912     0.0074001847 
    498000   0.050885838   -0.8880117      0.035655825   -0.77607636     0.0057693789 
    499000   0.050236377   -0.88882411     0.036302169   -0.77721599     0.0080967068 
    500000   0.050667904   -0.88751498     0.035590775   -0.77597138     0.0084973095 
Loop time of 126.239 on 8 procs for 500000 steps with 1550 atoms

Performance: 342209.029 tau/day, 3960.753 timesteps/s, 6.139 Matom-step/s
92.3% CPU use with 8 MPI tasks x 1 OpenMP threads

MPI task timing breakdown:
Section |  min time  |  avg time  |  max time  |%varavg| %total
---------------------------------------------------------------
Pair    | 16.3       | 17.361     | 19.43      |  23.2 | 13.75
Bond    | 4.8846     | 5.3931     | 5.9222     |  12.8 |  4.27
Neigh   | 0.12513    | 0.12548    | 0.12585    |   0.1 |  0.10
Comm    | 12.12      | 14.787     | 16.454     |  33.1 | 11.71
Output  | 0.61734    | 0.63606    | 0.65625    |   1.5 |  0.50
Modify  | 86.363     | 86.523     | 86.673     |   1.0 | 68.54
Other   |            | 1.413      |            |       |  1.12

Nlocal:         193.75 ave         208 max         181 min
Histogram: 2 0 1 1 0 1 0 2 0 1
Nghost:         630.75 ave         699 max         561 min
Histogram: 2 0 0 0 1 2 1 1 0 1
Neighs:              0 ave           0 max           0 min
Histogram: 8 0 0 0 0 0 0 0 0 0
FullNghs:       3876.5 ave        4378 max        3483 min
Histogram: 2 1 0 0 1 1 1 1 0 1

Total # of neighbors = 31012
Ave neighs/atom = 20.007742
Ave special neighs/atom = 2.1612903
Neighbor list builds = 462
Dangerous builds = 0

unfix ThermoLng

# Now we let the system to create the polymeric network
fix ThermoLng all langevin ${temp} ${temp} ${damp} ${seed3} # Brownian Dynamics: langevin + nve
fix ThermoLng all langevin 0.05 ${temp} ${damp} ${seed3} 
fix ThermoLng all langevin 0.05 0.05 ${damp} ${seed3} 
fix ThermoLng all langevin 0.05 0.05 1 ${seed3} 
fix ThermoLng all langevin 0.05 0.05 1 2010 
run ${steps}
run 5000000
WARNING: Using a manybody potential with bonds/angles/dihedrals and special_bond exclusions (src/pair.cpp:250)
Hybrid pair style last /omp style table/omp
Last active /omp style is angle_style harmonic/omp
Per MPI rank memory allocation (min/avg/max) = 23.66 | 23.66 | 23.66 Mbytes
   Step          Temp          E_pair         E_mol          TotEng         Press     
    500000   0.050667904   -0.88751498     0.035590775   -0.77597138     0.0085830428 
    501000   0.051477819   -0.88877539     0.035863493   -0.77574499     0.0085815904 
    502000   0.05025362    -0.88903252     0.036061189   -0.77763953     0.002641541  
    503000   0.049527402   -0.88906365     0.03602067    -0.77879981    -0.0042410899 
    504000   0.049338962   -0.88820283     0.033315016   -0.78092711     0.0025655192 
    505000   0.047992196   -0.88812455     0.033949713   -0.78223299     0.0095808215 
    506000   0.051196856   -0.89085754     0.034087143   -0.78002466     0.0028283018 
    507000   0.05011883    -0.88920509     0.034768445   -0.7793069      0.0063692832 
    508000   0.050720293   -0.89074841     0.035558676   -0.77915838     0.0020844159 
    509000   0.048892448   -0.89208049     0.034581525   -0.78420761     0.0021461668 
    510000   0.050450679   -0.89201539     0.034796904   -0.78159129     0.014773335  
    511000   0.050905821   -0.89138812     0.036593166   -0.77848548     0.0094833547 
    512000   0.050458603   -0.89180576     0.036744512   -0.77942218     0.0031883486 
    513000   0.051809387   -0.89310001     0.036786023   -0.77865004     0.0035807821 
    514000   0.052761804   -0.89316899     0.035795411   -0.77828193     0.0047670757 
    515000   0.051362201   -0.89312711     0.034947536   -0.78118597     0.0030037428 
    516000   0.048385606   -0.89369026     0.035021317   -0.78613736     0.011855954  
    517000   0.048759165   -0.89302775     0.036188058   -0.78374813     0.013953946  
    518000   0.049655658   -0.89332574     0.037018713   -0.7818716      0.0011387449 
    519000   0.05041457    -0.89322534     0.034576926   -0.78307535     0.0010437915 
    520000   0.050220601   -0.89462373     0.036365859   -0.78297557     0.0099410365 
    521000   0.0480102     -0.89245476     0.035503343   -0.78498258     0.0031300684 
    522000   0.052538599   -0.8942469      0.035557777   -0.77993207     0.0044348373 
    523000   0.050974931   -0.89542372     0.035766879   -0.78324378     0.0037094595 
    524000   0.049488894   -0.89527829     0.034697408   -0.78639544     0.0030738971 
    525000   0.050456436   -0.89425283     0.035390472   -0.78322653     0.0061606252 
    526000   0.050007464   -0.89596494     0.037147598   -0.78385454     0.0040153389 
    527000   0.04855704    -0.89473615     0.037168626   -0.78477895     0.0039138273 
    528000   0.052076902   -0.89442523     0.037285318   -0.77907496     0.0082804985 
    529000   0.049440191   -0.89524251     0.035467505   -0.78566256     0.00046511701
    530000   0.050783993   -0.89449427     0.035934289   -0.78243314     0.010834201  
    531000   0.049322018   -0.89476585     0.035945302   -0.78488525     0.012109306  
    532000   0.050751879   -0.89532988     0.034630427   -0.78462075     0.00061058816
    533000   0.051180581   -0.8961749      0.036237881   -0.78321567     0.0019297037 
    534000   0.049962676   -0.895328       0.034179294   -0.78625305     0.0031175142 
    535000   0.047971823   -0.89680247     0.033518699   -0.79137246     0.0090931162 
    536000   0.049260003   -0.89712901     0.035916765   -0.78736992     0.0093591324 
    537000   0.048758104   -0.89814357     0.033632023   -0.79142157     0.0039842118 
    538000   0.048789081   -0.89980017     0.036908075   -0.78975569     0.0084484671 
    539000   0.052201452   -0.90112993     0.036061049   -0.78681722     0.0021513437 
    540000   0.051458823   -0.90124777     0.035360168   -0.78874917     0.0085744651 
    541000   0.051271215   -0.90137614     0.034936888   -0.78958205     0.0026610718 
    542000   0.052651757   -0.90306282     0.036712357   -0.78742378     0.0044533656 
    543000   0.052406093   -0.90288717     0.034842494   -0.78948626     0.0095726773 
    544000   0.053518394   -0.90620626     0.035408701   -0.79057176     0.011636834  
    545000   0.052321426   -0.90605303     0.038205258   -0.78941626     0.0031832624 
    546000   0.051035467   -0.90638604     0.035561162   -0.79432107     0.0074894708 
    547000   0.051564876   -0.90620465     0.034599023   -0.79430821     0.005773072  
    548000   0.048524704   -0.90897503     0.036091497   -0.80014343     0.0021869793 
    549000   0.050344479   -0.91015933     0.036179547   -0.79851178    -0.0041382109 
    550000   0.050175053   -0.91014646     0.034291638   -0.8006408      0.004296786  
    551000   0.050491864   -0.91309487     0.036436137   -0.8009698      0.0075173237 
    552000   0.049799137   -0.91171985     0.035547049   -0.80152229     0.01461693   
    553000   0.049423912   -0.91351613     0.035174285   -0.80425381     0.012253042  
    554000   0.051150268   -0.91298792     0.034264904   -0.80204711     0.016378956  
    555000   0.050597396   -0.91436393     0.037007369   -0.80150943     0.0050495155 
    556000   0.050271279   -0.91539266     0.036880582   -0.80315381     0.0066634327 
    557000   0.04960711    -0.91511977     0.034255603   -0.80650151     8.9488533e-05
    558000   0.049105363   -0.91444908     0.036260701   -0.80457786    -0.0046359552 
    559000   0.050554263   -0.91444627     0.03619751    -0.80246629     0.003211685  
    560000   0.050223551   -0.91624341     0.037330184   -0.8036265     -0.00029943615
    561000   0.052968311   -0.91707725     0.033985539   -0.80369051     0.00048390205
    562000   0.050311586   -0.91798904     0.035421329   -0.80714902     0.0030329309 
    563000   0.051767324   -0.91667087     0.037239011   -0.80183097     0.0028943539 
    564000   0.052117468   -0.9165777      0.03584661    -0.80260533    -0.0019313453 
    565000   0.049971      -0.91657705     0.036393452   -0.80527546     0.010326983  
    566000   0.050848077   -0.91836474     0.038165489   -0.80397634    -0.00014515968
    567000   0.049840672   -0.91700215     0.03534251    -0.80694686     0.0069392019 
    568000   0.048970278   -0.91663185     0.036538493   -0.80668533     0.0015704319 
    569000   0.0507686     -0.9186395      0.035568631   -0.8069671      0.0021326276 
    570000   0.050112727   -0.9188213      0.035154583   -0.80854612     0.018307996  
    571000   0.048260097   -0.91817736     0.036538439   -0.80929548     0.0014697914 
    572000   0.049374606   -0.91940335     0.03654266    -0.80884657    -0.0068846423 
    573000   0.049529408   -0.91878824     0.035858137   -0.80868392     0.012136923  
    574000   0.051869799   -0.919525       0.03570811    -0.80606239     0.0043756459 
    575000   0.052285947   -0.91902855     0.036573377   -0.80407686     0.0062902071 
    576000   0.049288818   -0.91938266     0.037561116   -0.80793602    -0.0036281696 
    577000   0.052607089   -0.9194692      0.037881612   -0.80272787     0.0075010107 
    578000   0.050460369   -0.92125284     0.035678395   -0.80993272     0.0064577514 
    579000   0.048451416   -0.92278798     0.036044533   -0.81411321     0.0035215169 
    580000   0.048383887   -0.92184292     0.035322096   -0.81399182    -0.0021756588 
    581000   0.049755158   -0.92225622     0.034065034   -0.8136066      0.0084293431 
    582000   0.048704601   -0.92115635     0.035921064   -0.81222551     0.0071285052 
    583000   0.051002821   -0.92207809     0.036908424   -0.80871479     0.002366798  
    584000   0.050981323   -0.92163168     0.037317945   -0.80789109     0.0039411411 
    585000   0.052222708   -0.92345262     0.034979525   -0.81018957     0.0031925556 
    586000   0.04979912    -0.92245468     0.034133742   -0.81367045     0.009566679  
    587000   0.052226777   -0.92167706     0.035689317   -0.80769812     0.0054843695 
    588000   0.051340971   -0.92287724     0.038698727   -0.80721675     0.0075761014 
    589000   0.051602871   -0.92265172     0.036704727   -0.80859263    -0.00042455814
    590000   0.050185136   -0.92351348     0.037596221   -0.81068813     0.0035703302 
    591000   0.050921833   -0.92309763     0.036163167   -0.81060099     0.0023860711 
    592000   0.051785462   -0.92397276     0.037525485   -0.80881919    -0.0016427167 
    593000   0.049744742   -0.92255075     0.035976923   -0.81200486     0.0096999201 
    594000   0.049909767   -0.92447248     0.036348294   -0.81330784     0.0093093374 
    595000   0.052576657   -0.9262611      0.036291319   -0.81115568     0.0068735126 
    596000   0.050034632   -0.92710225     0.037041489   -0.81505724    -0.00095407473
    597000   0.049643709   -0.92610559     0.035786373   -0.8159017      0.004452065  
    598000   0.049233707   -0.92522534     0.036790128   -0.81463229     0.0041331643 
    599000   0.051412551   -0.92796851     0.035680307   -0.81521913     0.0098644744 
    600000   0.051020558   -0.92947709     0.036537788   -0.81645784     0.012836472  
    601000   0.052106447   -0.93024551     0.035624457   -0.81651181     0.011858752  
    602000   0.050827883   -0.92997318     0.035406713   -0.81837383     0.006714764  
    603000   0.05104584    -0.9309782      0.037570877   -0.81688796     0.0028664563 
    604000   0.049001882   -0.92926664     0.035200037   -0.82061121     0.0077619905 
    605000   0.049470098   -0.93083681     0.035988988   -0.82069055    -0.0028604171 
    606000   0.052029524   -0.92985257     0.035595212   -0.81626343     0.0052639373 
    607000   0.050477214   -0.93099533     0.036416366   -0.81891199     0.0047438597 
    608000   0.051480419   -0.92989426     0.036251532   -0.81647192     0.0071458066 
    609000   0.049405958   -0.9321776      0.037869295   -0.82024718     0.0015009251 
    610000   0.051477534   -0.93522254     0.037548734   -0.82050732     0.0054910976 
    611000   0.051469541   -0.93357739     0.035255246   -0.82116765     0.010914609  
    612000   0.051630858   -0.93432965     0.036282511   -0.82065082    -0.0059774922 
    613000   0.051435217   -0.93456001     0.034292711   -0.82316425     0.0052910218 
    614000   0.051225094   -0.93318488     0.035990972   -0.82040584     0.0045807734 
    615000   0.050105656   -0.93385181     0.037356284   -0.82138553     0.0081511749 
    616000   0.049520893   -0.93667474     0.036924996   -0.82551633     0.0068709357 
    617000   0.04958251    -0.93821086     0.036870068   -0.82701501     0.0025931979 
    618000   0.051578672   -0.93995927     0.035527908   -0.82711327     0.0012509318 
    619000   0.051439769   -0.94217955     0.035952614   -0.82911706     0.0025817415 
    620000   0.049855937   -0.94439265     0.036291881   -0.83336512     0.00079732705
    621000   0.050237498   -0.94533303     0.037335005   -0.83269039     0.0017681635 
    622000   0.05138841    -0.94565985     0.036157577   -0.83246939     0.0057259691 
    623000   0.05152139    -0.94530729     0.03594676    -0.83212831     0.004034674  
    624000   0.050491551   -0.94600379     0.034898034   -0.8354173      0.013198594  
    625000   0.050022714   -0.94697821     0.035597523   -0.83639503     0.0032783347 
    626000   0.050840611   -0.94771014     0.035235484   -0.83626294    -0.00057267461
    627000   0.049749512   -0.94707487     0.036503891   -0.83599486     0.010178398  
    628000   0.049831927   -0.94816148     0.035580374   -0.83788144     0.0096710541 
    629000   0.05183874    -0.9480241      0.035450782   -0.83486537     0.0068909677 
    630000   0.048193574   -0.94766054     0.035606561   -0.83981026     0.0027882216 
    631000   0.050623104   -0.94714713     0.034438486   -0.83682297     0.0024278735 
    632000   0.051633214   -0.94686988     0.037467591   -0.83200243     0.0035245129 
    633000   0.051802853   -0.94680616     0.037913886   -0.83123813     0.011132136  
    634000   0.049996083   -0.94723511     0.036613307   -0.83567606     0.0029794246 
    635000   0.051098665   -0.94627738     0.037200953   -0.83247788     0.0063485907 
    636000   0.049996472   -0.94599941     0.036186593   -0.83486649     0.00081068826
    637000   0.050995472   -0.94654199     0.037822404   -0.83227573     0.0081740051 
    638000   0.051365781   -0.94729118     0.03694659    -0.83334563     0.0071155598 
    639000   0.052211613   -0.9475371      0.036574628   -0.83269558    -0.0018964714 
    640000   0.050339537   -0.94727529     0.035455542   -0.83635916     0.0023855152 
    641000   0.050061934   -0.94802941     0.035646509   -0.83733844     0.0026337017 
    642000   0.050236914   -0.94647773     0.036886659   -0.83428431     0.0056284858 
    643000   0.050687499   -0.94667967     0.037638738   -0.83305873     0.00095381435
    644000   0.050419235   -0.94695008     0.036295761   -0.83507426     0.00093238735
    645000   0.0515984     -0.94598917     0.035990808   -0.8326507      0.00085839466
    646000   0.050587967   -0.94683532     0.03373332    -0.83726901     0.0041111764 
    647000   0.05051019    -0.94652657     0.036773882   -0.83403628     0.0070069956 
    648000   0.049967295   -0.94818338     0.036909225   -0.83637157     0.0069612773 
    649000   0.050900158   -0.94761796     0.035252166   -0.83606481     0.0031350321 
    650000   0.051341931   -0.94920621     0.03758399    -0.83465901     0.0086433482 
    651000   0.051563606   -0.95176941     0.03817455    -0.83629935     0.0075632823 
    652000   0.0518682     -0.95159209     0.037878729   -0.83596126     0.0013138094 
    653000   0.05249613    -0.95230217     0.040231336   -0.83337744     0.0013844682 
    654000   0.051182348   -0.9520372      0.036271282   -0.83904193     0.0098939833 
    655000   0.049641011   -0.95146114     0.035397721   -0.84164994     0.0033167549 
    656000   0.050243877   -0.95217289     0.034320523   -0.84253518     0.011694179  
    657000   0.049515057   -0.95429968     0.0366553     -0.84341971     0.0069328622 
    658000   0.049829855   -0.95290869     0.036652694   -0.84155944     0.012803804  
    659000   0.051486015   -0.95262132     0.035574247   -0.83986787     0.011415166  
    660000   0.051706524   -0.95260449     0.038339595   -0.83675514     0.0032361899 
    661000   0.049711791   -0.95397091     0.035387134   -0.8440642      0.0065374135 
    662000   0.049595059   -0.9538559      0.036619151   -0.84289216    -0.0042136636 
    663000   0.050216894   -0.9546124      0.033809411   -0.84552624     0.0056966803 
    664000   0.051209029   -0.95567237     0.035937955   -0.84297043     0.0058536638 
    665000   0.049199911   -0.95481385     0.035095325   -0.84596628     0.0098589612 
    666000   0.048731101   -0.9561479      0.036465852   -0.84663256    -0.0036583913 
    667000   0.050435614   -0.9551271      0.035560942   -0.84396154     0.005039634  
    668000   0.050326705   -0.95697844     0.03791835    -0.84361874     0.0079683396 
    669000   0.050361011   -0.95718719     0.036062761   -0.84563165     0.01972428   
    670000   0.052520116   -0.95830465     0.036177131   -0.84339818     0.014959049  
    671000   0.051155645   -0.95936187     0.037322877   -0.84535503     0.0043178006 
    672000   0.052714344   -0.96111571     0.034727962   -0.84736725     0.011503996  
    673000   0.051975738   -0.96144361     0.03800486    -0.84552545     0.0023416021 
    674000   0.050901821   -0.96075147     0.035509499   -0.8489385     -0.0017526813 
    675000   0.050351568   -0.95990998     0.037108847   -0.8473225      0.0048736853 
    676000   0.050777232   -0.96131091     0.035908865   -0.84928534    -0.00077901239
    677000   0.051817796   -0.95966889     0.037251322   -0.84474102     0.012729756  
    678000   0.049534016   -0.96082149     0.03726479    -0.84930361    -0.0042542816 
    679000   0.05117556    -0.96101951     0.036421447   -0.84788424     0.010604884  
    680000   0.05070684    -0.95963924     0.037727069   -0.84590098     0.0064188615 
    681000   0.051775749   -0.96408949     0.037055308   -0.84942066     0.0073888537 
    682000   0.05092103    -0.96532507     0.038422049   -0.85057075     0.015826371  
    683000   0.050868828   -0.96517201     0.037438352   -0.85147965    -0.0007495828 
    684000   0.051012423   -0.96613141     0.038603983   -0.85105816     0.0060599025 
    685000   0.050305039   -0.96610255     0.037006874   -0.8536868     -0.00037963153
    686000   0.050229559   -0.9676435      0.037941616   -0.85440615     0.0019179996 
    687000   0.052493404   -0.96998029     0.036777782   -0.8545132      0.0037036077 
    688000   0.051845579   -0.96977563     0.036396438   -0.85566099    -0.0014743929 
    689000   0.051492224   -0.97062955     0.037772409   -0.85566864    -0.0007390558 
    690000   0.050993557   -0.9726133      0.037903176   -0.85826914    -0.0015184791 
    691000   0.051586918   -0.97080267     0.038738177   -0.85473404     0.00015868226
    692000   0.052246311   -0.971811       0.036034239   -0.85745785    -0.0027671346 
    693000   0.052459499   -0.97198847     0.037442809   -0.85590718     0.003165288  
    694000   0.051361224   -0.97185747     0.037311105   -0.85755424     0.0029297003 
    695000   0.051200785   -0.97136745     0.037128195   -0.85748762     0.0019933174 
    696000   0.048911891   -0.97200829     0.036343828   -0.86234396     0.0034881954 
    697000   0.051138056   -0.97186316     0.03850938    -0.85669619    -0.0018079303 
    698000   0.049395114   -0.97209569     0.037371955   -0.86067886     8.6434043e-07
    699000   0.04954907    -0.97295757     0.036970303   -0.86171162     0.00092940651
    700000   0.049982145   -0.97371983     0.035341402   -0.86345359     0.0058650394 
    701000   0.05027471    -0.97352816     0.036787527   -0.86137722     0.0024254439 
    702000   0.051130136   -0.97250093     0.036336912   -0.85951829     0.0069094642 
    703000   0.051506977   -0.97209471     0.03792777    -0.85695632     0.009052678  
    704000   0.050401915   -0.97236358     0.036445356   -0.86036413     0.006912391  
    705000   0.050765761   -0.97234695     0.038569129   -0.85767831    -0.0026151785 
    706000   0.050811923   -0.97316569     0.036210855   -0.86078613     0.00093564443
    707000   0.050356775   -0.97368528     0.035193425   -0.86300542     0.0051855078 
    708000   0.050539025   -0.97471087     0.035386201   -0.86356504     0.0029939491 
    709000   0.050930926   -0.97368865     0.036114442   -0.86122711     0.0012104226 
    710000   0.050505712   -0.97343735     0.036593522   -0.86113413     0.0063020458 
    711000   0.050114055   -0.97267535     0.036933642   -0.86061912     0.0052060549 
    712000   0.052041755   -0.97501436     0.036329129   -0.86067296     0.0060940401 
    713000   0.050056669   -0.97555492     0.037738989   -0.86277937     0.011155089  
    714000   0.05110129    -0.97655747     0.036747019   -0.86320797     0.0040952898 
    715000   0.051147176   -0.97714027     0.034589048   -0.86587995     0.0032286322 
    716000   0.050246086   -0.97802646     0.036450421   -0.86625554    -0.0029124732 
    717000   0.050296758   -0.97748639     0.036111115   -0.86597881     0.0025679934 
    718000   0.048706531   -0.98139832     0.037724099   -0.87066156     0.0024240528 
    719000   0.049770276   -0.98108339     0.037109388   -0.86936675    -0.0088591917 
    720000   0.051161569   -0.98123339     0.037074027   -0.86746652    -0.0075174048 
    721000   0.051734723   -0.98086742     0.035928722   -0.86738668     0.0015012896 
    722000   0.050299372   -0.98371158     0.036211369   -0.87209983     0.010928562  
    723000   0.050246789   -0.98337174     0.03639869    -0.87165149     0.0097008513 
    724000   0.049709742   -0.98175687     0.038345364   -0.868895      -6.5176947e-05
    725000   0.050462503   -0.98148798     0.038435169   -0.8674079     -0.0034135351 
    726000   0.050371622   -0.98421988     0.035756471   -0.87295472     0.0041958849 
    727000   0.050169712   -0.98483226     0.036015619   -0.87361063    -0.0036234318 
    728000   0.051050554   -0.98638795     0.035617132   -0.87424439    -0.0080602394 
    729000   0.050908788   -0.98627412     0.035806167   -0.87415404     0.0083349322 
    730000   0.050105914   -0.98488422     0.035858447   -0.87391539     0.0047997849 
    731000   0.051468343   -0.98676285     0.036993115   -0.87261703    -0.0013153058 
    732000   0.05039925    -0.98612907     0.036251146   -0.87432783     0.0042210839 
    733000   0.048996777   -0.98596815     0.037665155   -0.87485525    -0.00095670263
    734000   0.049467975   -0.98458278     0.035093957   -0.87533473     0.012017004  
    735000   0.051882434   -0.98628962     0.035747843   -0.87276834     0.0024712277 
    736000   0.051012691   -0.98573656     0.035865234   -0.87340166    -0.0030735215 
    737000   0.050624454   -0.98406174     0.036445171   -0.87172887    -0.0032749697 
    738000   0.050423357   -0.98528084     0.036654362   -0.87304024     0.010943093  
    739000   0.049168509   -0.98528708     0.036821685   -0.87476022     0.015018694  
    740000   0.050231894   -0.9860231      0.03708914    -0.87363473    -0.0025455709 
    741000   0.050373967   -0.98631203     0.03860903    -0.87219079     0.0019912661 
    742000   0.051304058   -0.98598648     0.03572803    -0.87335201    -0.0060866139 
    743000   0.05017719    -0.98620677     0.036573712   -0.87441583     0.001300078  
    744000   0.050846778   -0.98595236     0.036074101   -0.8736573      0.0027123403 
[...]
   3793000   0.052316949   -1.1587298      0.052499906   -1.0278051     -0.0005883508 
   3794000   0.052638666   -1.1567621      0.051590774   -1.0262643      0.0044752709 
   3795000   0.053223641   -1.1566792      0.053687628   -1.0232076     -0.0031885721 
   3796000   0.052139369   -1.1586671      0.053714123   -1.0267944      0.01647847   
   3797000   0.052611343   -1.1567749      0.053221362   -1.0246875      0.018260791  
   3798000   0.052154387   -1.1583141      0.05154929    -1.0285837      0.014370413  
   3799000   0.050021483   -1.1576815      0.053265952   -1.0294317     -0.0024539456 
   3800000   0.051637563   -1.1586898      0.053865962   -1.0274174      0.011785908  
   3801000   0.054201278   -1.1592218      0.053060845   -1.0249115      0.011380479  
   3802000   0.053010252   -1.1571336      0.054303015   -1.0233665      0.012757642  
   3803000   0.052030902   -1.1558509      0.053450303   -1.0244046      0.0067901128 
   3804000   0.05237151    -1.1575688      0.052917645   -1.0261445      0.021485165  
   3805000   0.051237257   -1.1585496      0.053894658   -1.0278486      0.0079206321 
   3806000   0.05349672    -1.1584772      0.052912907   -1.0253709      0.0029278961 
   3807000   0.051871441   -1.1565371      0.050469422   -1.0283108      0.01987707   
   3808000   0.050505612   -1.1570909      0.053730835   -1.0276505     -0.0016736009 
   3809000   0.051178256   -1.1582777      0.055077973   -1.0264819      0.0028150143 
   3810000   0.051015976   -1.1565028      0.0512428     -1.0287854      0.0010988897 
   3811000   0.050293788   -1.1584408      0.052934436   -1.0301143     -0.0035660139 
   3812000   0.051758335   -1.1569535      0.050805238   -1.0285609      0.024090035  
   3813000   0.052356786   -1.1579665      0.051903467   -1.0275785      0.014243862  
   3814000   0.052608413   -1.157312       0.054475513   -1.0239748      0.0017031489 
   3815000   0.053055346   -1.1588502      0.052176208   -1.0271424      0.019248438  
   3816000   0.051684691   -1.1593296      0.056056733   -1.0257959      0.019927991  
   3817000   0.051514768   -1.1575441      0.053012027   -1.0273098      0.0074432657 
   3818000   0.052333097   -1.1597043      0.052558589   -1.0286967      0.0095938624 
   3819000   0.051938977   -1.1597749      0.052333075   -1.0295836     -0.0076868538 
   3820000   0.051576383   -1.1574929      0.051496308   -1.0286819      0.0095603584 
   3821000   0.05255202    -1.1578972      0.05014555    -1.0289745      0.010495791  
   3822000   0.050141914   -1.1580608      0.051775602   -1.0311208      0.013457046  
   3823000   0.051413202   -1.1585806      0.051949499   -1.0295611      0.014151365  
   3824000   0.050779082   -1.1592503      0.054299834   -1.028831       0.013358506  
   3825000   0.050725859   -1.1588413      0.05180015    -1.0310015      0.007622583  
   3826000   0.051840044   -1.1575792      0.05249267    -1.0273766      0.014789569  
   3827000   0.050110693   -1.1576367      0.053541031   -1.0289781      0.0069114158 
   3828000   0.05235134    -1.158345       0.0514703     -1.0283984      0.00300932   
   3829000   0.052328265   -1.156588       0.053163537   -1.0249827      0.023750168  
   3830000   0.052767144   -1.1580811      0.052141927   -1.0268396      0.0088462834 
   3831000   0.051718936   -1.1582493      0.052427905   -1.0282931      0.024880034  
   3832000   0.050438022   -1.156737       0.052187507   -1.0289413      0.003530239  
   3833000   0.052853576   -1.1586193      0.054728943   -1.0246611      0.0062400401 
   3834000   0.053902695   -1.1572191      0.055137806   -1.0212794      0.0046317861 
   3835000   0.052039479   -1.1585325      0.055313985   -1.0252097     -0.0060513504 
   3836000   0.054818419   -1.1595605      0.053316279   -1.0240696      0.0027516942 
   3837000   0.051084799   -1.1584025      0.055586839   -1.0262379      0.014606973  
   3838000   0.052212499   -1.1568183      0.051579795   -1.0269703      0.025509367  
   3839000   0.050569591   -1.1598564      0.055087711   -1.0289632      0.014941659  
   3840000   0.050548894   -1.158603       0.0544233     -1.0284053      0.011305682  
   3841000   0.052036505   -1.1592304      0.055337213   -1.0258888      0.0058316901 
   3842000   0.052366709   -1.1583669      0.05323969    -1.0266279      0.021129904  
   3843000   0.051782764   -1.1586689      0.052291048   -1.0287539     -0.0037050316 
   3844000   0.051951434   -1.1575081      0.050979058   -1.0286522      0.0097295792 
   3845000   0.051753574   -1.1589403      0.053925376   -1.0274346      0.012128389  
   3846000   0.050538336   -1.1573949      0.052690795   -1.0289455      0.011608479  
   3847000   0.052150386   -1.1580103      0.052127887   -1.0277073      0.012219753  
   3848000   0.052428253   -1.1578682      0.054036054   -1.0252405      0.00055431026
   3849000   0.051768737   -1.1574518      0.05101048    -1.0288383      0.0056359746 
   3850000   0.051981771   -1.1585085      0.051607779   -1.0289784      0.016279112  
   3851000   0.051189915   -1.1581106      0.051322714   -1.0300525      0.024104625  
   3852000   0.052648064   -1.1587411      0.053065659   -1.0267543      0.0041616732 
   3853000   0.052923      -1.1586221      0.054114714   -1.0251741      0.0013301587 
   3854000   0.052967275   -1.1585286      0.050818694   -1.0283102     -0.00079907974
   3855000   0.05137128    -1.1583718      0.051361553   -1.030003       0.023917639  
   3856000   0.05014201    -1.1587199      0.051248888   -1.0323065      0.024011347  
   3857000   0.050147388   -1.159034       0.052799137   -1.0310623      0.010445975  
   3858000   0.052818381   -1.1593961      0.054153704   -1.0260659     -0.0008016481 
   3859000   0.052251032   -1.159501       0.054128171   -1.0270469      0.0045908588 
   3860000   0.05259014    -1.1591844      0.052990754   -1.0273594      0.010620808  
   3861000   0.050938876   -1.1574352      0.051551245   -1.0295249      0.012021398  
   3862000   0.052316258   -1.1574614      0.051552607   -1.027485       0.013292406  
   3863000   0.051523042   -1.1585576      0.051534885   -1.029788       0.013821552  
   3864000   0.049361236   -1.1578058      0.055385993   -1.0284258      0.013610714  
   3865000   0.050925049   -1.1595277      0.052373419   -1.030816       0.025829646  
   3866000   0.052416515   -1.1584358      0.052756716   -1.027105       0.0030892215 
   3867000   0.052023798   -1.1555269      0.050460344   -1.0270812      0.023506827  
   3868000   0.053713621   -1.158673       0.052802611   -1.025352       0.038991511  
   3869000   0.051427879   -1.1583082      0.054660973   -1.0265552      0.007096197  
   3870000   0.0531476     -1.1565838      0.052888386   -1.0240254      0.0091115915 
   3871000   0.051518971   -1.1583233      0.054528052   -1.0265666     -0.0051849322 
   3872000   0.052058774   -1.1577898      0.052667102   -1.0270849      0.013041909  
   3873000   0.052016475   -1.1602973      0.053953738   -1.0283692      0.027205843  
   3874000   0.050604397   -1.1592951      0.052166701   -1.0312707      0.016959722  
   3875000   0.051343916   -1.1601587      0.052357262   -1.0308353      0.021242933  
   3876000   0.05360747    -1.1601575      0.055177705   -1.0246205      0.017922282  
   3877000   0.051818797   -1.1596636      0.054624295   -1.0273613      0.013794425  
   3878000   0.052122044   -1.1578997      0.053956122   -1.025811       0.019315831  
   3879000   0.052246281   -1.1602679      0.053301426   -1.0286476      0.02462366   
   3880000   0.051211307   -1.1593098      0.053884487   -1.028658       0.0031491217 
   3881000   0.050904081   -1.158047       0.052274977   -1.0294651      0.010511533  
   3882000   0.050560101   -1.1604763      0.053491518   -1.0311936      0.0074041638 
   3883000   0.052727669   -1.1597708      0.052744429   -1.0279859      0.014977547  
   3884000   0.052759169   -1.1594242      0.055227657   -1.0251089      0.00991812   
   3885000   0.051629859   -1.1578693      0.055779535   -1.024695       0.0081335217 
   3886000   0.051903818   -1.1584704      0.054215956   -1.026449       0.022502145  
   3887000   0.050574624   -1.1599976      0.054917436   -1.0292672      0.011444494  
   3888000   0.053721258   -1.1585355      0.053701834   -1.0243037      0.012657985  
   3889000   0.052344752   -1.1554144      0.054952938   -1.021995       0.004581208  
   3890000   0.052472318   -1.1582927      0.052576093   -1.0270589      0.0098139899 
   3891000   0.052495519   -1.1582789      0.054361025   -1.0252254      0.025869245  
   3892000   0.052025443   -1.1581407      0.054236713   -1.0259162      0.017759163  
   3893000   0.053491471   -1.1582959      0.05395621    -1.0241543      0.029941178  
   3894000   0.052119022   -1.1601452      0.055369306   -1.0266478      0.012136876  
   3895000   0.052724323   -1.1586166      0.056110313   -1.0234709      0.014160067  
   3896000   0.051646052   -1.1591848      0.053472538   -1.0282931      0.034863418  
   3897000   0.052122057   -1.1592835      0.053843145   -1.0273077      0.028646241  
   3898000   0.053558862   -1.1596382      0.056345295   -1.0230064      0.016557909  
   3899000   0.053190471   -1.1576716      0.056145596   -1.0217918      0.0252948    
   3900000   0.052308288   -1.1593244      0.054297381   -1.0266152      0.0091900836 
   3901000   0.051549142   -1.1592763      0.053335555   -1.0286669      0.027228073  
   3902000   0.050817029   -1.1584995      0.053643924   -1.0286792      0.014428942  
   3903000   0.052311222   -1.1596931      0.053080876   -1.028196       0.023467119  
   3904000   0.052511709   -1.1589035      0.055106347   -1.0250805      0.011867991  
   3905000   0.050988971   -1.1581884      0.053452019   -1.0283022      0.00020385783
   3906000   0.051707662   -1.1584797      0.053594127   -1.0273741      0.016856768  
   3907000   0.051453304   -1.1585751      0.054229676   -1.0272153      0.0083152832 
   3908000   0.051197773   -1.1570416      0.05571265    -1.0245819      0.0092323698 
   3909000   0.051703253   -1.1583104      0.05462635    -1.0261792      0.015228614  
   3910000   0.050836431   -1.1574799      0.054604646   -1.0266698      0.010120081  
   3911000   0.052599758   -1.157739       0.05363687    -1.0252534      0.020680085  
   3912000   0.051404759   -1.1585643      0.053192251   -1.0283147      0.018739744  
   3913000   0.050506109   -1.1578129      0.054246537   -1.0278561      0.0077519478 
   3914000   0.051579987   -1.1591259      0.052764937   -1.0290409      0.0057945107 
   3915000   0.050797667   -1.1577732      0.053844834   -1.027781       0.018984798  
   3916000   0.051286359   -1.1596277      0.053678527   -1.0290693      0.035670331  
   3917000   0.052726847   -1.1590606      0.052766652   -1.0272547      0.018297475  
   3918000   0.052144473   -1.1565114      0.053554675   -1.0247905      0.023285221  
   3919000   0.051800748   -1.1588548      0.056834341   -1.0243695      0.011342414  
   3920000   0.052621422   -1.1573093      0.054638726   -1.0237893      0.027186794  
   3921000   0.051879374   -1.1587817      0.053721685   -1.0272911      0.023615567  
   3922000   0.05194005    -1.1595545      0.052783361   -1.0289113      0.0030758964 
   3923000   0.051463638   -1.1600014      0.053442745   -1.029413       0.0076282866 
   3924000   0.053267962   -1.1580733      0.053991941   -1.0242309      0.021628488  
   3925000   0.051143051   -1.1599682      0.055312389   -1.0279907      0.017115919  
   3926000   0.050477334   -1.1581547      0.054607721   -1.0278798      0.027806471  
   3927000   0.052337784   -1.1588615      0.058432217   -1.0219732      0.0042711708 
   3928000   0.052321286   -1.1578595      0.054827758   -1.0246005      0.015176385  
   3929000   0.053618173   -1.1596405      0.055253575   -1.0240116      0.015126034  
   3930000   0.051831879   -1.1600949      0.056011202   -1.026386       0.027964463  
   3931000   0.051891329   -1.1597865      0.053014434   -1.0289852      0.010984284  
   3932000   0.051329092   -1.1583877      0.053500333   -1.0279434      0.013781102  
   3933000   0.050740891   -1.157997       0.050103961   -1.0318308      0.013675931  
   3934000   0.052343984   -1.1583863      0.053744444   -1.0261765      0.012582593  
   3935000   0.05246608    -1.1589314      0.053675809   -1.0266072      0.013854294  
   3936000   0.050928873   -1.1612356      0.054428151   -1.0304634      0.0002984929 
   3937000   0.050928729   -1.1573289      0.054819679   -1.0261654      0.023236142  
   3938000   0.053423116   -1.1588139      0.055647146   -1.0230837      0.0038498519 
   3939000   0.052244538   -1.1587788      0.055408283   -1.0250543      0.0051208692 
   3940000   0.052043409   -1.1586193      0.057573841   -1.0230307      0.0098669952 
   3941000   0.05362062    -1.158721       0.05223858    -1.0261034      0.0076862405 
   3942000   0.050846201   -1.1584035      0.055035533   -1.0271479      0.013933984  
   3943000   0.051311542   -1.1593566      0.055095036   -1.0273439      0.0067601993 
   3944000   0.052646631   -1.1595428      0.053579556   -1.0270442      0.0030422073 
   3945000   0.049275577   -1.1602977      0.056211499   -1.0302206      0.016000899  
   3946000   0.05251492    -1.1573663      0.051117695   -1.0275271      0.0051348768 
   3947000   0.050696085   -1.1588089      0.052180006   -1.0306338      0.0043218912 
   3948000   0.051251982   -1.1575122      0.052375996   -1.0283078      0.023752309  
   3949000   0.051432815   -1.1603065      0.055448044   -1.027759       0.0025785523 
   3950000   0.05114095    -1.1589347      0.055359878   -1.0269129      0.0077199257 
   3951000   0.053316035   -1.1611129      0.055258247   -1.0259322      0.007219654  
   3952000   0.051841213   -1.1602019      0.054848211   -1.0276421     -0.0082932538 
   3953000   0.051699456   -1.1592317      0.052897312   -1.0288352      0.016004247  
   3954000   0.053725749   -1.1601984      0.054981034   -1.0246808      0.0088868824 
   3955000   0.052061013   -1.1583651      0.054612903   -1.0257111      0.0060289796 
   3956000   0.051539156   -1.160137       0.055800266   -1.0270778      0.02271872   
   3957000   0.052508571   -1.158556       0.051612349   -1.0282316      0.024565767  
   3958000   0.055278736   -1.1598232      0.054690401   -1.0222682      0.017579865  
   3959000   0.053443493   -1.1598028      0.055249138   -1.0244401      0.010892516  
   3960000   0.051355602   -1.1589483      0.052875068   -1.0290895      0.022698404  
   3961000   0.051689312   -1.1599012      0.055045833   -1.0273714      0.004969873  
   3962000   0.052347794   -1.159814       0.054540054   -1.0268029      0.016761476  
   3963000   0.050614706   -1.1594376      0.055990414   -1.0275742      0.004486797  
   3964000   0.050800041   -1.1573943      0.052998475   -1.0282449      0.010302423  
   3965000   0.050953179   -1.1586299      0.05673383    -1.0255156      0.004930827  
   3966000   0.05294776    -1.1598821      0.053365578   -1.0271462      0.0094822712 
   3967000   0.052909319   -1.1584341      0.054935679   -1.0241857      0.017182389  
   3968000   0.054365138   -1.1601085      0.055942144   -1.0226713      0.004623513  
   3969000   0.051431098   -1.157989       0.052109458   -1.0287827      0.0019035057 
   3970000   0.053411681   -1.1601624      0.054799932   -1.0252966      0.016952391  
   3971000   0.050870716   -1.1600907      0.054049433   -1.0297844      0.019487451  
   3972000   0.050581475   -1.159452       0.0554459     -1.0281828      0.020441307  
   3973000   0.05258431    -1.159549       0.054161169   -1.0265622      0.00069792561
   3974000   0.052261751   -1.1607797      0.054190374   -1.0282473      0.024272958  
   3975000   0.05293729    -1.1577424      0.05370844    -1.0246793      0.011101272  
   3976000   0.051192225   -1.1570421      0.054333908   -1.0259694      0.013267043  
   3977000   0.051147694   -1.1576825      0.053434872   -1.0275756      0.00023148929
   3978000   0.051419174   -1.1567086      0.051769504   -1.0278601      0.018669306  
   3979000   0.05158436    -1.1594664      0.053112426   -1.0290274      0.0087225983 
   3980000   0.051527011   -1.1583643      0.053445789   -1.0276778      0.013480359  
   3981000   0.05124045    -1.1586412      0.053946814   -1.0278833      0.024138929  
   3982000   0.051495464   -1.1578913      0.053826942   -1.026871       0.0083240374 
   3983000   0.051787164   -1.1588744      0.05426229    -1.0269814      0.004702104  
   3984000   0.052954981   -1.1597434      0.055203297   -1.0251589     -0.00014773066
   3985000   0.053425479   -1.1581755      0.055407266   -1.0226818      0.0045545224 
   3986000   0.05444679    -1.1600537      0.055774719   -1.0226615      0.0030283441 
   3987000   0.053137788   -1.157674       0.053311389   -1.0247074      0.010237149  
   3988000   0.052652687   -1.159275       0.054570727   -1.0257762      0.013921206  
   3989000   0.052401633   -1.1593499      0.058172804   -1.0226254      0.0066849284 
   3990000   0.051153962   -1.1573817      0.052824239   -1.027876       0.014289274  
   3991000   0.051927838   -1.1592962      0.055064724   -1.0263899      0.018517373  
   3992000   0.051014883   -1.1585995      0.055977621   -1.0261489      0.027883136  
   3993000   0.053511035   -1.1595651      0.056425588   -1.0229247      0.0053469135 
   3994000   0.053015037   -1.1589352      0.056549114   -1.0229149      0.02157827   
   3995000   0.052791004   -1.1579145      0.055021083   -1.023758       0.017149161  
   3996000   0.05243079    -1.1587018      0.05443897    -1.0256674     -0.0045367841 
   3997000   0.052640586   -1.157673       0.05605222    -1.0227108      0.0071111739 
   3998000   0.052763015   -1.1600627      0.055390246   -1.025579       0.021750697  
   3999000   0.050745886   -1.1572992      0.053771865   -1.0274576      0.021360887  
   4000000   0.051286426   -1.1597474      0.054938747   -1.0279286      0.026030345  
   4001000   0.053770526   -1.156329       0.055641881   -1.0200833      0.0077975555 
   4002000   0.052525865   -1.1572633      0.053728366   -1.024797       0.013891064  
   4003000   0.051667419   -1.1593648      0.053447361   -1.0284663      0.012239358  
   4004000   0.052237594   -1.1586984      0.055284574   -1.025108       0.0092511903 
   4005000   0.051478863   -1.1591565      0.05414714    -1.0278409      0.0086567355 
   4006000   0.050396081   -1.1579749      0.05836784    -1.0240617     -0.0040798095 
   4007000   0.052882435   -1.1587533      0.054731561   -1.0247493      0.01570428   
   4008000   0.053031412   -1.1576319      0.052072724   -1.0260634      0.013110512  
   4009000   0.050154301   -1.1597613      0.05497993    -1.0295985     -0.0029057162 
   4010000   0.053273844   -1.1595003      0.054142942   -1.0254981      0.0080671901 
   4011000   0.050544867   -1.1574058      0.054769442   -1.026868      -0.00055478729
   4012000   0.052040732   -1.1589299      0.052469012   -1.0284501      0.0091853514 
   4013000   0.051378524   -1.1592923      0.054241529   -1.0280327      0.013465493  
   4014000   0.051612773   -1.1561452      0.05357227    -1.0252037      0.020024558  
   4015000   0.052739226   -1.1575961      0.05536295    -1.0231753      0.00019977233
   4016000   0.052286505   -1.1584162      0.055896772   -1.0241403      0.011805015  
   4017000   0.051854787   -1.1588281      0.054895705   -1.0262004      0.0077131646 
   4018000   0.050151975   -1.1587468      0.052253524   -1.0313138      0.0065613828 
   4019000   0.053152128   -1.1604978      0.057744729   -1.0230763      0.008702368  
   4020000   0.049308566   -1.1582846      0.055512347   -1.0288571      0.018837837  
   4021000   0.051188728   -1.1577878      0.054643081   -1.0264111      0.023055637  
   4022000   0.