LAMMPS (22 Jul 2025)
OMP_NUM_THREADS environment is not set. Defaulting to 1 thread.
  using 1 OpenMP thread(s) per MPI task
package omp 0
using multi-threaded neighbor list subroutines
# Input Script of lammps for assembly simulation of polimeric network.
# Main code is based on: https://github.com/PipeB62/Hydrogel-Simulation
# Patchy particles are with bond style.

# Felipe Benavides modified by Fco. Vazquez

# Initialization
units lj
dimension 3
boundary p p p

# Styles of atoms and that stuff
atom_style full
bond_style harmonic
angle_style harmonic
pair_style hybrid/overlay zero 0.0 lj/cut/omp 1.12 table/omp linear 5000000 threebody/table

newton on

# Create simulaiton box
region simulation_box block -$L $L -$L $L -$L $L
region simulation_box block -9.796741 $L -$L $L -$L $L
region simulation_box block -9.796741 9.796741 -$L $L -$L $L
region simulation_box block -9.796741 9.796741 -9.796741 $L -$L $L
region simulation_box block -9.796741 9.796741 -9.796741 9.796741 -$L $L
region simulation_box block -9.796741 9.796741 -9.796741 9.796741 -9.796741 $L
region simulation_box block -9.796741 9.796741 -9.796741 9.796741 -9.796741 9.796741
# N-atom-types region-ID keyword value Is necesesary the extra/special/per/atom (# of special neighbors per atom)
create_box 4 simulation_box     bond/types 1     angle/types 2     extra/bond/per/atom 10     extra/angle/per/atom 6     extra/special/per/atom 10
Created orthogonal box = (-9.796741 -9.796741 -9.796741) to (9.796741 9.796741 9.796741)
  2 by 2 by 2 MPI processor grid

# Atom types
mass 1 1.0      # CL
mass 2 1.0      # MO
mass 3 1.0      # PA
mass 4 1.0      # PB

# Coefficients
include potential.in
# Script with the pair-wise interaction and bonds between particles

bond_coeff 1 100.0 0.45
angle_coeff 1 100.0 180
angle_coeff 2 100.0 109.4712
pair_coeff 1 3 zero 0.5
pair_coeff 1 4 zero 0.5
pair_coeff 2 3 zero 0.5
pair_coeff 2 4 zero 0.5
pair_coeff 3 3 zero 0.5
pair_coeff 1 1 lj/cut/omp 1.0 1.0 1.12
pair_coeff 2 2 lj/cut/omp 1.0 1.0 1.12
pair_coeff 1 2 lj/cut/omp 1.0 1.0 1.12
pair_coeff 3 4 table/omp sysFiles/pachTab.table POT 0.6 # sw/omp sysFiles/patchyPot.sw NULL NULL PA PB
Reading pair table potential file sysFiles/pachTab.table with DATE: 2024-07-08
WARNING: 7 of 1000000 force values in table POT are inconsistent with -dE/dr.
WARNING:  Should only be flagged at inflection points (src/pair_table.cpp:469)
pair_coeff 4 4 table/omp sysFiles/pachTab.table POT 0.6 # sw/omp sysFiles/patchyPot.sw NULL NULL PA PB
Reading pair table potential file sysFiles/pachTab.table with DATE: 2024-07-08
WARNING: 7 of 1000000 force values in table POT are inconsistent with -dE/dr.
WARNING:  Should only be flagged at inflection points (src/pair_table.cpp:469)
pair_coeff * * threebody/table swapMech.3b NULL NULL PA PB
pair_modify pair lj/cut/omp shift yes


# Molecules
include molecules.in
# Script with all molecule information and create groups for computes

# Read the molecule information
molecule CL sysFiles/molecule.patchy.CL
Read molecule template CL:
# Patchy Cross-Linker
  1 molecules
  0 fragments
  0 bodies
  5 atoms with max type 3
  4 bonds with max type 1
  6 angles with max type 2
  0 dihedrals with max type 0
  0 impropers with max type 0
molecule MO sysFiles/molecule.patchy.MO
Read molecule template MO:
# Patchy Monomer
  1 molecules
  0 fragments
  0 bodies
  3 atoms with max type 4
  2 bonds with max type 1
  1 angles with max type 1
  0 dihedrals with max type 0
  0 impropers with max type 0

# Introduce the molecules
# ID style args keyword arg
region spawn_box block -$L $L -$L $L -$L $L
region spawn_box block -9.796741 $L -$L $L -$L $L
region spawn_box block -9.796741 9.796741 -$L $L -$L $L
region spawn_box block -9.796741 9.796741 -9.796741 $L -$L $L
region spawn_box block -9.796741 9.796741 -9.796741 9.796741 -$L $L
region spawn_box block -9.796741 9.796741 -9.796741 9.796741 -9.796741 $L
region spawn_box block -9.796741 9.796741 -9.796741 9.796741 -9.796741 9.796741

# create_atoms type style args keyword values
# style_random: N seed region-ID
# keyword_mol: template-ID seed
# keyword_overlap: overlap value = only insert if at least this distance from all existing atoms
# keyword_maxtry: maxtry value = number of attempts to insert a particle before failure
create_atoms 0 random ${NCL} ${seed1} spawn_box mol CL ${seed1} overlap 1.0 maxtry 5000 #xls
create_atoms 0 random 25 ${seed1} spawn_box mol CL ${seed1} overlap 1.0 maxtry 5000 
create_atoms 0 random 25 3234 spawn_box mol CL ${seed1} overlap 1.0 maxtry 5000 
create_atoms 0 random 25 3234 spawn_box mol CL 3234 overlap 1.0 maxtry 5000 
Created 125 atoms
  using lattice units in orthogonal box = (-9.796741 -9.796741 -9.796741) to (9.796741 9.796741 9.796741)
  create_atoms CPU = 0.009 seconds
create_atoms 0 random ${NMO} ${seed2} spawn_box mol MO ${seed2} overlap 1.0 maxtry 5000 #mon
create_atoms 0 random 475 ${seed2} spawn_box mol MO ${seed2} overlap 1.0 maxtry 5000 
create_atoms 0 random 475 6321 spawn_box mol MO ${seed2} overlap 1.0 maxtry 5000 
create_atoms 0 random 475 6321 spawn_box mol MO 6321 overlap 1.0 maxtry 5000 
Created 1425 atoms
  using lattice units in orthogonal box = (-9.796741 -9.796741 -9.796741) to (9.796741 9.796741 9.796741)
  create_atoms CPU = 0.006 seconds

# Create patchy particles
group CrossLinker type 1 3
125 atoms in group CrossLinker
group Monomer type 2 4
1425 atoms in group Monomer
group Patches type 3 4
1050 atoms in group Patches
group CL type 1
25 atoms in group CL
group MO type 2
475 atoms in group MO
group PA type 3
100 atoms in group PA
group CM type 1 2
500 atoms in group CM

# Neighbor list
neighbor 1.8 bin # extra-distance style
#neigh_modify delay 0 every 1 check no
#neigh_modify exclude molecule/intra CrossLinker
#neigh_modify exclude molecule/intra Monomer

# COMPUTES

# Compute global kinetic and potential energy and temperature
compute t all temp
compute p all pressure t
compute ep all pe
compute ek all ke
variable eT equal etotal
variable eB equal ebond
variable eA equal eangle
variable eM equal emol
variable ec equal ecouple
variable eC equal econserve

# Potencial energy per pair-wise interaction
compute wcaPair all pair lj/cut/omp epair
compute patchPair all pair table/omp epair
compute swapPair all pair threebody/table epair

# Compute the pressure
compute press all pressure t ke virial
compute pressVirial all pressure t virial
compute pressVirialMod all pressure t pair bond angle

# Computes for the stress
compute cstress all stress/atom t ke pair bond angle
compute cstressVirial all stress/atom t virial
compute cstressVirialMod all stress/atom t pair bond angle
compute stress all reduce sum c_cstress[*]
compute stressVirial all reduce sum c_cstressVirial[*]
compute stressVirialMod all reduce sum c_cstressVirialMod[*]

# Displacement of the central particles
compute disp CM displace/atom
compute redDisp CM reduce ave c_disp[*] # All, because yes

# Get the number of central particles per cluster
compute clusters all aggregate/atom 0.6                             # Create the clusters
compute Nclpart CM chunk/atom c_clusters compress yes discard yes   # Get the number of clusters
compute clsize CM property/chunk Nclpart count                      # Counts the atoms in each chunk
compute idcl CM property/chunk Nclpart id                           # Get the ids of the clusters

# DUMPS and FIXES

thermo ${NsaveStress}
thermo 1000

# Save global energies and temperature
fix Energy all ave/time 1 ${Nsave} ${Nsave} c_t c_wcaPair c_patchPair c_swapPair c_ep c_ek v_eT v_ec v_eC c_p v_eB v_eA v_eM c_redDisp[*] file ${Dir}/${file1_name}
fix Energy all ave/time 1 1000 ${Nsave} c_t c_wcaPair c_patchPair c_swapPair c_ep c_ek v_eT v_ec v_eC c_p v_eB v_eA v_eM c_redDisp[*] file ${Dir}/${file1_name}
fix Energy all ave/time 1 1000 1000 c_t c_wcaPair c_patchPair c_swapPair c_ep c_ek v_eT v_ec v_eC c_p v_eB v_eA v_eM c_redDisp[*] file ${Dir}/${file1_name}
fix Energy all ave/time 1 1000 1000 c_t c_wcaPair c_patchPair c_swapPair c_ep c_ek v_eT v_ec v_eC c_p v_eB v_eA v_eM c_redDisp[*] file /home/franvt/GitRepos/molDynLammps/polymericGels/gel-bonds-1/data/0.050.30.05500-2026-01-27-123757/${file1_name}
fix Energy all ave/time 1 1000 1000 c_t c_wcaPair c_patchPair c_swapPair c_ep c_ek v_eT v_ec v_eC c_p v_eB v_eA v_eM c_redDisp[*] file /home/franvt/GitRepos/molDynLammps/polymericGels/gel-bonds-1/data/0.050.30.05500-2026-01-27-123757/system_assembly.fixf

# Save Pressure and Stress tensor
fix fixStress5 all ave/time 1 ${NsaveStress} ${NsaveStress} c_p c_press[*] c_pressVirial[*] c_pressVirialMod[*] c_stress[*] c_stressVirial[*] c_stressVirialMod[*] file ${Dir}/${file2_name}
fix fixStress5 all ave/time 1 1000 ${NsaveStress} c_p c_press[*] c_pressVirial[*] c_pressVirialMod[*] c_stress[*] c_stressVirial[*] c_stressVirialMod[*] file ${Dir}/${file2_name}
fix fixStress5 all ave/time 1 1000 1000 c_p c_press[*] c_pressVirial[*] c_pressVirialMod[*] c_stress[*] c_stressVirial[*] c_stressVirialMod[*] file ${Dir}/${file2_name}
fix fixStress5 all ave/time 1 1000 1000 c_p c_press[*] c_pressVirial[*] c_pressVirialMod[*] c_stress[*] c_stressVirial[*] c_stressVirialMod[*] file /home/franvt/GitRepos/molDynLammps/polymericGels/gel-bonds-1/data/0.050.30.05500-2026-01-27-123757/${file2_name}
fix fixStress5 all ave/time 1 1000 1000 c_p c_press[*] c_pressVirial[*] c_pressVirialMod[*] c_stress[*] c_stressVirial[*] c_stressVirialMod[*] file /home/franvt/GitRepos/molDynLammps/polymericGels/gel-bonds-1/data/0.050.30.05500-2026-01-27-123757/stress_assembly.fixf

# Save the global cluster information
fix 1 CM ave/time 1 1 ${Ndump} c_idcl c_clsize file ${Dir}/${file3_name} mode vector
fix 1 CM ave/time 1 1 1000 c_idcl c_clsize file ${Dir}/${file3_name} mode vector
fix 1 CM ave/time 1 1 1000 c_idcl c_clsize file /home/franvt/GitRepos/molDynLammps/polymericGels/gel-bonds-1/data/0.050.30.05500-2026-01-27-123757/${file3_name} mode vector
fix 1 CM ave/time 1 1 1000 c_idcl c_clsize file /home/franvt/GitRepos/molDynLammps/polymericGels/gel-bonds-1/data/0.050.30.05500-2026-01-27-123757/clust_assembly.fixf mode vector

# Save atom positions with cluster id
dump dumpID all custom ${Ndump} ${Dir}/traj/${file5_name} id mol c_clusters type x y z vx vy vz
dump dumpID all custom 1000 ${Dir}/traj/${file5_name} id mol c_clusters type x y z vx vy vz
dump dumpID all custom 1000 /home/franvt/GitRepos/molDynLammps/polymericGels/gel-bonds-1/data/0.050.30.05500-2026-01-27-123757/traj/${file5_name} id mol c_clusters type x y z vx vy vz
dump dumpID all custom 1000 /home/franvt/GitRepos/molDynLammps/polymericGels/gel-bonds-1/data/0.050.30.05500-2026-01-27-123757/traj/traj_assembly.*.dumpf id mol c_clusters type x y z vx vy vz
dump_modify dumpID pbc yes # remap atoms via periodic boundary conditions

# RUN SIMULATION

# Brownian Dynamics using Langevin Thermostat

timestep ${tstep}
timestep 0.001

fix VelVerlet all nve # Use Velocity Verlet integrator

# First elevate the temperature
fix ThermoLng all langevin 0.0 ${temp} ${damp} ${seed3} tally yes zero yes # Brownian Dynamics: langevin + nve
fix ThermoLng all langevin 0.0 0.05 ${damp} ${seed3} tally yes zero yes 
fix ThermoLng all langevin 0.0 0.05 1 ${seed3} tally yes zero yes 
fix ThermoLng all langevin 0.0 0.05 1 2010 tally yes zero yes 
run ${stepsheat}
run 500000
WARNING: Using a manybody potential with bonds/angles/dihedrals and special_bond exclusions (src/pair.cpp:250)
Hybrid pair style last /omp style table/omp
Last active /omp style is angle_style harmonic/omp
Neighbor list info ...
  update: every = 1 steps, delay = 0 steps, check = yes
  max neighbors/atom: 2000, page size: 100000
  master list distance cutoff = 2.92
  ghost atom cutoff = 2.92
  binsize = 1.46, bins = 14 14 14
  7 neighbor lists, perpetual/occasional/extra = 6 1 0
  (1) pair zero, perpetual, skip from (7)
      attributes: half, newton on, omp
      pair build: skip/omp
      stencil: none
      bin: none
  (2) pair lj/cut/omp, perpetual, skip from (7)
      attributes: half, newton on, omp
      pair build: skip/omp
      stencil: none
      bin: none
  (3) pair table/omp, perpetual, skip from (7)
      attributes: half, newton on, omp
      pair build: skip/omp
      stencil: none
      bin: none
  (4) pair threebody/table, perpetual, skip from (6)
      attributes: full, newton on, omp
      pair build: skip/omp
      stencil: none
      bin: none
  (5) compute aggregate/atom, occasional, copy from (6)
      attributes: full, newton on, omp
      pair build: copy
      stencil: none
      bin: none
  (6) neighbor class addition, perpetual
      attributes: full, newton on, omp
      pair build: full/bin/omp
      stencil: full/bin/3d
      bin: standard
  (7) neighbor class addition, perpetual, half/full from (6)
      attributes: half, newton on, omp
      pair build: halffull/newton/omp
      stencil: none
      bin: none
Per MPI rank memory allocation (min/avg/max) = 20.03 | 20.03 | 20.03 Mbytes
   Step          Temp          E_pair         E_mol          TotEng         Press     
         0   0              0.00041490155  0.15480456     0.15521947    -0.21361809   
      1000   0.038128237    0              0.00013757075  0.057293028    0.0036255212 
      2000   0.00015524756  8.543009e-08   0.020977048    0.021209855    0.068369326  
      3000   0.0053601671   0              0.0001566732   0.0081917366   0.0024773034 
      4000   0.00032043582  0              0.0030278828   0.0035082264  -0.026562159  
      5000   0.0011098552   0              0.00027894739  0.0019426561  -0.0005261401 
      6000   0.00052871377  0              0.00073390715  0.0015264661   0.0095531329 
      7000   0.00072896697  0              0.00040823029  0.0015009753  -1.2979742e-05
      8000   0.0007251149   0              0.00053299756  0.0016199682  -0.0032626071 
      9000   0.00081771509  1.3387704e-06  0.00052435467  0.0017514747   2.4759112e-06
     10000   0.00090243713  0              0.0006006103   0.0019533927   0.0011493598 
     11000   0.0010197323   0              0.00066288448  0.0021914962  -0.00042254769
     12000   0.0011051079   0              0.00072884253  0.0023854349  -0.00024522879
     13000   0.0011985165   0              0.00078137006  0.0025779849   0.00057614678
     14000   0.0013249056   0              0.00085482435  0.0028409006   0.00081224385
     15000   0.0014112991   0              0.00096232634  0.0030779093  -0.00010780047
     16000   0.0015343975   0              0.0010154688   0.0033155802  -0.00081771796
     17000   0.0016020278   4.7441589e-08  0.0010642477   0.0034657865   0.00030980887
     18000   0.0017598133   0              0.0011497192   0.003787736    0.0012942109 
     19000   0.0018430414   0              0.0012059735   0.003968752    5.7970273e-05
     20000   0.0019080305   0              0.0012946994   0.0041548986  -0.00044607826
     21000   0.001992366    5.7799363e-07  0.0013610759   0.0043482748   0.00069963965
     22000   0.0021283243  -3.6672612e-09  0.0014649008   0.0046553239   0.00056659963
     23000   0.0025735469  -0.0015218821   0.0017283014   0.004064249    0.00012610136
     24000   0.0024444094  -0.0016039619   0.0016864538   0.0037467405  -0.00025353478
     25000   0.0024681684  -0.0016016608   0.0016795706   0.0037777739  -0.00025316254
     26000   0.0025092316  -0.001589946    0.001707866    0.0038793392   0.00073864395
     27000   0.0030589285  -0.0031177114   0.002012252    0.0034799731   0.00066127919
     28000   0.002845273   -0.0031717067   0.0020052056   0.003098655   -0.00065030665
     29000   0.0028512639  -0.0032042003   0.0019482227   0.0030181589  -0.00057429635
     30000   0.0032344357  -0.0047618896   0.0020775691   0.0021642029  -0.00033739482
     31000   0.0030894149  -0.0048363168   0.0022389438   0.0020337595  -5.3009553e-05
     32000   0.0032581607  -0.0048324545   0.0021927205   0.0022443541   0.0004081845 
     33000   0.0032215756  -0.0048326584   0.0023286392   0.0023252265   0.00081874659
     34000   0.0040031854  -0.0075381178   0.0027834668   0.0012462531  -0.00038818505
     35000   0.0034571004  -0.0077706526   0.0024728762  -0.00011547145 -0.00047436738
     36000   0.0044781808  -0.010762873    0.002879389   -0.0011705465   0.00029027022
     37000   0.0046349367  -0.012733258    0.0026719396  -0.0031133985   0.0014358727 
     38000   0.003998545   -0.012685588    0.002635141   -0.004056499    0.00085337462
     39000   0.0042627611  -0.014426017    0.0027870632  -0.0052489372  -0.00031597353
     40000   0.004134619   -0.014466278    0.0026197665  -0.0056485844  -0.0001137876 
     41000   0.0039847584  -0.014424344    0.0027835834  -0.005667479    0.0012337074 
     42000   0.0041003877  -0.014461977    0.0027443035  -0.00557106     0.00093054757
     43000   0.0046610268  -0.016092878    0.0029636582  -0.0061421907  -0.00089918803
     44000   0.0050067312  -0.017410171    0.0032844405  -0.0066204791   0.00065734213
     45000   0.004455419   -0.017661738    0.0034852371  -0.0074976837   0.00065597604
     46000   0.0051730411  -0.018875657    0.0031358034  -0.0079852986   0.0012827956 
     47000   0.0048234191  -0.020213159    0.0036651187  -0.0093175793  -0.00014686758
     48000   0.0050129943  -0.020804911    0.0032635772  -0.010026693    0.0010465819 
     49000   0.0048960789  -0.02092223     0.003432082   -0.010150768    0.00069088756
     50000   0.0049235086  -0.020936616    0.0033882007  -0.010167917    0.00079825125
     51000   0.00492648    -0.020952896    0.0034339135  -0.01013403    -9.9449397e-06
     52000   0.0049640066  -0.020935875    0.0036265379  -0.0098681306   0.0005278417 
     53000   0.0051770599  -0.020929367    0.003623604   -0.0095451832   0.00036990358
     54000   0.0052657508  -0.020944248    0.0034947157  -0.0095560024   0.00086037796
     55000   0.0060853671  -0.023751249    0.0038114575  -0.01081763    -0.0011225271 
     56000   0.0062538265  -0.025626116    0.0044453757  -0.011806053   -0.00027783503
     57000   0.0059547504  -0.025535002    0.0040988231  -0.012509816    0.00078965433
     58000   0.0058286135  -0.025713989    0.0042028718  -0.012773837    0.00087809502
     59000   0.0059676236  -0.025765081    0.004081245   -0.012738176   -0.00083566962
     60000   0.0062263966  -0.028179923    0.0047460447  -0.014100309   -0.00074142725
     61000   0.0059818772  -0.028790768    0.0043156234  -0.015508118    0.0019284784 
     62000   0.0067672005  -0.030551642    0.0044656802  -0.01594171     0.00085783845
     63000   0.0061759127  -0.030546407    0.0042984406  -0.016990074    0.00022777165
     64000   0.006368309   -0.030614988    0.0043737853  -0.016694903    0.00091681367
     65000   0.006979178   -0.03180092     0.0046508149  -0.016688092   -0.0010421423 
     66000   0.006667507   -0.033497093    0.0049865955  -0.018515689   -0.00018351472
     67000   0.0070366041  -0.035029979    0.0048388929  -0.019642989    0.001288804  
     68000   0.0066585769  -0.035294355    0.0049549037  -0.020358029    0.00035402746
     69000   0.00774469    -0.03695675     0.0046795276  -0.020667683    0.00070925206
     70000   0.0075509027  -0.04064005     0.0055705939  -0.02375041    -0.0018496157 
     71000   0.0080932312  -0.043399417    0.005499981   -0.025767421    0.0017198277 
     72000   0.0073398181  -0.043454734    0.0052650805  -0.02718703     0.0016786875 
     73000   0.0082095926  -0.045840785    0.0054637154  -0.028070625    0.0004600615 
     74000   0.0077800166  -0.046450173    0.0052802499  -0.029507427   -0.00041996995
     75000   0.0074292031  -0.046591614    0.0053660244  -0.030088975   -0.00041463259
     76000   0.0080027951  -0.048257038    0.0055370475  -0.030723543    0.0020339269 
     77000   0.0076748602  -0.048277163    0.0053867585  -0.031385542    0.001708909  
     78000   0.008144959   -0.049644101    0.0054825338  -0.03195201    -0.00091277784
     79000   0.0074898826  -0.051124451    0.005852221   -0.034044654    0.00045086305
     80000   0.0082122728  -0.052183593    0.0058364175  -0.034036714   -0.00035149015
     81000   0.0085000032  -0.054556112    0.0056781302  -0.036136202    0.00015970755
     82000   0.0082185397  -0.056153057    0.0062090051  -0.037624196    0.00014269859
     83000   0.0096146426  -0.058705174    0.006278348   -0.038014166    0.00037179401
     84000   0.0092357251  -0.059354831    0.005857861   -0.03965232     0.00047488718
     85000   0.0081015621  -0.059531149    0.0058980691  -0.041488577   -9.8837603e-05
     86000   0.0088965743  -0.061422849    0.0060647872  -0.04202181    -0.00091965681
     87000   0.008721849   -0.062409196    0.0064831676  -0.042851695    0.0029836841 
     88000   0.010043441   -0.06582373     0.0067625536  -0.044005735    0.0013747767 
     89000   0.0095545455  -0.066951882    0.0061576629  -0.046471648    0.00010086466
     90000   0.010147375   -0.069095769    0.0060937386  -0.047790787    0.00022778544
     91000   0.0092176955  -0.069033274    0.0067508475  -0.048464804    0.00063674755
     92000   0.0095120861  -0.070714241    0.0067916841  -0.049663633    0.0015618703 
     93000   0.0092714691  -0.070794768    0.006522662   -0.050373875    0.0014469555 
     94000   0.0093884616  -0.070797593    0.0067830233  -0.049940963    0.0010637428 
     95000   0.010528898   -0.073839706    0.0066369646  -0.051419583    0.0018230506 
     96000   0.0097243418  -0.073761103    0.0063165777  -0.052867424   -0.0007493365 
     97000   0.010361445   -0.075603985    0.0070295896  -0.053042255    0.00013826626
     98000   0.010936829   -0.078282777    0.0072153604  -0.054672758    0.00022203233
     99000   0.010007058   -0.07857286     0.0069755328  -0.056596425   -0.00061588076
    100000   0.010245952   -0.0787175      0.0072617911  -0.056096696   -0.00060968091
    101000   0.010321905   -0.080184721    0.006843532   -0.05786832    -2.6514343e-05
    102000   0.0098863423  -0.080469564    0.0071374487  -0.05851217     0.0013675838 
    103000   0.011470406   -0.083627393    0.0076160969  -0.058816787    0.00050325661
    104000   0.011527542   -0.085612898    0.0075690398  -0.060763701    0.0024648261 
    105000   0.011119937   -0.087780608    0.0078257665  -0.063285697    0.00052593822
    106000   0.01170929    -0.09016856     0.0077799722  -0.064835983   -0.0010794652 
    107000   0.011522565   -0.09285923     0.0077139178  -0.067872615    0.0014563314 
    108000   0.013520888   -0.099770544    0.0085623327  -0.070939963    0.0011599371 
    109000   0.011529412   -0.1033862      0.0088490306  -0.077254211    9.9780679e-05
    110000   0.012026175   -0.10566135     0.0082480033  -0.079385721    0.00075832342
    111000   0.011215969   -0.10599615     0.0076627336  -0.081520322    0.00083506577
    112000   0.011155031   -0.10616894     0.0077189127  -0.081728273   -0.00026488348
    113000   0.011436224   -0.10621597     0.0077084037  -0.081364294    7.3577918e-05
    114000   0.012672019   -0.11039043     0.0085998253  -0.082794837    0.0012530127 
    115000   0.012153045   -0.11208671     0.0085175372  -0.085351362   -6.4095154e-05
    116000   0.012049636   -0.11466189     0.0086054506  -0.087993642   -0.0015391253 
    117000   0.012475121   -0.11862407     0.0086733129  -0.091250153    7.5243856e-05
    118000   0.012107023   -0.12041607     0.0084479045  -0.093819351   -0.00064658883
    119000   0.01204535    -0.12051711     0.0084959474  -0.093964791    0.00044286962
    120000   0.012324931   -0.12032784     0.0079052786  -0.093947097    0.002546416  
    121000   0.012407792   -0.12271983     0.008825208   -0.09529494     0.00050108849
    122000   0.012401394   -0.12311637     0.0084415558  -0.096084722    0.0016691381 
    123000   0.011876478   -0.12319375     0.0082742394  -0.097116289   -0.00048803204
    124000   0.012194979   -0.12423845     0.0084737887  -0.097483992   -0.00028064376
    125000   0.01382901    -0.1289544      0.0092042996  -0.09901997     0.00081872616
    126000   0.013532318   -0.13126531     0.009269218   -0.10171071     2.089286e-05 
    127000   0.013422787   -0.13222918     0.0090745474  -0.10303344     0.0011458959 
    128000   0.01305697    -0.13239615     0.0089163083  -0.10390702     0.0016813053 
    129000   0.013901345   -0.13554868     0.0096801266  -0.10502999    -0.0010019179 
    130000   0.014515354   -0.13970967     0.0098981145  -0.10805257     0.00067602792
    131000   0.014403114   -0.1420412      0.0096479086  -0.11080256     0.0011399594 
    132000   0.013534526   -0.14530191     0.0097091376  -0.11530408    -0.0014297299 
    133000   0.013935361   -0.14731384     0.0093771471  -0.11704713     0.001116396  
    134000   0.013743296   -0.14727201     0.0092967154  -0.11737366     0.0010666533 
    135000   0.013211017   -0.14750129     0.0093261828  -0.11837137     0.00014202117
    136000   0.013780473   -0.14863659     0.0097613426  -0.11821787    -0.00032239628
    137000   0.013719524   -0.14894608     0.0093593426  -0.11902073     0.0017593723 
    138000   0.014108659   -0.15042542     0.009965702   -0.11931038     0.00079664303
    139000   0.015088813   -0.15327996     0.0099065811  -0.12075476     0.0010943674 
    140000   0.014304595   -0.15498244     0.0099579756  -0.12358141     0.001730532  
    141000   0.014896781   -0.15950296     0.010671661   -0.12650054     0.0031210773 
    142000   0.014793751   -0.16252514     0.010302598   -0.13004623     0.004572795  
    143000   0.014515748   -0.16451705     0.010490515   -0.13226696    -0.001114894  
    144000   0.01467409    -0.16585172     0.010688805   -0.13316598    -0.0020086462 
    145000   0.014841122   -0.16780126     0.010504821   -0.13504912     0.00058536337
    146000   0.014736665   -0.16815503     0.010137453   -0.13592684    -0.00079215956
    147000   0.014361864   -0.16817113     0.0095640393  -0.13707819     0.003938837  
    148000   0.01499894    -0.17069085     0.010961234   -0.13724572     8.2031735e-05
    149000   0.015074084   -0.1711016      0.0102501     -0.13825497     0.00029807409
    150000   0.014775378   -0.17134213     0.010244992   -0.13894837     0.00060054862
    151000   0.014865357   -0.17143419     0.010594579   -0.13855596     0.0023887502 
    152000   0.014733832   -0.17133386     0.010197222   -0.13905015     0.0011953164 
    153000   0.015988859   -0.17258244     0.010890733   -0.13772389     0.0024751368 
    154000   0.016890567   -0.17657929     0.010734562   -0.14052522    -0.00065880089
    155000   0.017673577   -0.18163991     0.011484459   -0.14366219     0.00020061554
    156000   0.016850667   -0.18672565     0.011239986   -0.15022597     0.00099334075
    157000   0.016027164   -0.18720753     0.011618635   -0.15156366     0.0012959259 
    158000   0.016283158   -0.18840698     0.011257791   -0.15274021    -0.0013940708 
    159000   0.017417004   -0.19015408     0.011577384   -0.15246804     0.0018564337 
    160000   0.016986392   -0.19204908     0.011839973   -0.15474596     0.0041758701 
    161000   0.017577084   -0.19721331     0.012758411   -0.15810629    -0.00092751607
    162000   0.017873465   -0.19953715     0.012548658   -0.16019559     0.0010544551 
    163000   0.017145485   -0.20044114     0.011719645   -0.16301986    -0.0013090027 
    164000   0.01712986    -0.20077679     0.011194461   -0.16390411     0.0032302857 
    165000   0.016867472   -0.20249509     0.011634597   -0.16557561     0.00079302524
    166000   0.016456944   -0.20252875     0.010657878   -0.16720138     0.0011509973 
    167000   0.016588445   -0.20395057     0.010954425   -0.16812954    -0.00030986769
    168000   0.016057684   -0.20660228     0.011953038   -0.17057825     0.0042852502 
    169000   0.017168699   -0.20726462     0.011909885   -0.1696183     -0.00039637791
    170000   0.018276109   -0.21289851     0.012614821   -0.17288722     0.0027619669 
    171000   0.016871873   -0.21533971     0.012104266   -0.17794396     0.0022270666 
    172000   0.01776086    -0.21950502     0.012329428   -0.18055149     0.001458955  
    173000   0.01821083    -0.22024923     0.011717568   -0.18123304     0.00089082746
    174000   0.018424561   -0.2219578      0.012144979   -0.18219381     0.0013546197 
    175000   0.018021361   -0.22286528     0.012157948   -0.18369273     0.0010737294 
    176000   0.017521007   -0.22402785     0.01222924    -0.18553406     0.003807806  
    177000   0.018572592   -0.22814757     0.013152346   -0.18715431     0.0020975418 
    178000   0.019396382   -0.23378502     0.012746896   -0.19196232     0.0022301358 
    179000   0.019286247   -0.23857558     0.012768579   -0.19689629     0.0011942358 
    180000   0.020012342   -0.2434053      0.013601381   -0.19980477     0.00043931301
    181000   0.019616133   -0.24925713     0.014002185   -0.20584973    -0.0011483431 
    182000   0.019846924   -0.25220946     0.013094885   -0.2093634     -0.00015707134
    183000   0.018635253   -0.25401413     0.012919778   -0.21315951     0.00079790832
    184000   0.018645194   -0.25558145     0.013279696   -0.214352       0.0012432956 
    185000   0.02007051    -0.26032581     0.012747095   -0.21749238     0.0037292452 
    186000   0.019205024   -0.26321807     0.012925978   -0.22150315    -0.00061408131
    187000   0.019679092   -0.2655222      0.013465428   -0.22255717     0.002174655  
    188000   0.019132589   -0.26801971     0.013966107   -0.22537323    -0.00097507536
    189000   0.020568542   -0.27214989     0.013551274   -0.22776571     0.0044701066 
    190000   0.020426855   -0.27274972     0.013685914   -0.22844329    -0.0010718764 
    191000   0.02026278    -0.27745076     0.014829273   -0.23224693    -0.0019528121 
    192000   0.020501168   -0.27865836     0.012939726   -0.23498672    -0.00039290035
    193000   0.019621333   -0.2799573      0.013776497   -0.2367678      0.0031177733 
    194000   0.019652124   -0.28159023     0.013605281   -0.23852578    -0.0026033652 
    195000   0.019208809   -0.28465322     0.01386167    -0.24199692     0.0014196881 
    196000   0.019756139   -0.28668318     0.014337996   -0.2427301      0.0021656856 
    197000   0.020022588   -0.28675735     0.014348992   -0.24239386     0.00049725078
    198000   0.020162652   -0.28832783     0.014059479   -0.24404388    -0.00039772921
    199000   0.020344766   -0.28822962     0.014148976   -0.24358318     0.0013713678 
    200000   0.020452538   -0.28972339     0.014133288   -0.24493109     0.0025838999 
    201000   0.021985558   -0.29270988     0.015035431   -0.24471739     0.00043527789
    202000   0.020399303   -0.29440381     0.01496008    -0.24886452    -0.0015580297 
    203000   0.02093595    -0.29431165     0.013252321   -0.24967566     0.00064081848
    204000   0.020493191   -0.29605846     0.014387981   -0.25095053     0.002738051  
    205000   0.02132659    -0.30043791     0.014136346   -0.25433232     0.00079495153
    206000   0.020358111   -0.30043657     0.014106904   -0.2558122     -0.0026651965 
    207000   0.021717843   -0.3020811      0.013813566   -0.25571179     0.0039748795 
    208000   0.021018348   -0.30452263     0.014883766   -0.25813168     0.005092124  
    209000   0.021422838   -0.3052308      0.01457729    -0.25853998     0.0031397046 
    210000   0.020817126   -0.30518753     0.014933459   -0.25904853    -0.00016831311
    211000   0.020506167   -0.30541841     0.014392963   -0.26028604     0.00060154759
    212000   0.021363727   -0.30711445     0.014517319   -0.26057221     0.0034733889 
    213000   0.021978852   -0.31092459     0.01550453    -0.26247306    -0.00053335789
    214000   0.021875679   -0.31390421     0.016639266   -0.26447259    -0.0016097553 
    215000   0.022679495   -0.32040979     0.015938889   -0.2704736      0.00014125681
    216000   0.022561446   -0.32388554     0.015215261   -0.27484994     0.0030340404 
    217000   0.022563907   -0.32457206     0.015623906   -0.27512413     0.0028214791 
    218000   0.023707431   -0.32712768     0.015425828   -0.27616365     0.0022644388 
    219000   0.022106766   -0.32761455     0.015648255   -0.27882754     0.0013183515 
    220000   0.022415963   -0.33036874     0.015909191   -0.2808573      0.0023717465 
    221000   0.022310815   -0.33396048     0.016570492   -0.28394536    -0.0013896674 
    222000   0.023819826   -0.33644877     0.014958558   -0.28578352    -0.00053199746
    223000   0.024561166   -0.34447935     0.016647203   -0.29101417     0.0048946279 
    224000   0.022899086   -0.34532137     0.016425108   -0.29456979    -0.0030641815 
    225000   0.022971275   -0.34596398     0.015919736   -0.29560957     0.00056378021
    226000   0.022706275   -0.34674298     0.016126025   -0.29657952     0.0008916573 
    227000   0.022991731   -0.34908        0.016729825   -0.29788483     0.0020998647 
    228000   0.023112003   -0.34896169     0.015325433   -0.29899062     0.0021702242 
    229000   0.023411876   -0.35026486     0.015710329   -0.29945937     0.001301426  
    230000   0.023644378   -0.35309761     0.016418537   -0.30123539     1.7197951e-05
    231000   0.022994441   -0.35277081     0.015586865   -0.30271453     0.0019068029 
    232000   0.024122265   -0.35601443     0.016770591   -0.30308378    -7.2585346e-05
    233000   0.024673905   -0.35868661     0.015958774   -0.30574085     0.00089904609
    234000   0.024442236   -0.36184648     0.016176142   -0.30903064     0.0010773596 
    235000   0.024743679   -0.36396678     0.016562161   -0.31031304     9.5991238e-07
    236000   0.025085784   -0.36716803     0.017108502   -0.31245513     0.0011241243 
    237000   0.023486037   -0.36860766     0.016513431   -0.3168879     -0.00042772356
    238000   0.023378594   -0.37046299     0.016445925   -0.3189718      0.00029452582
    239000   0.024493856   -0.37074672     0.016507903   -0.31752174     0.0032109998 
    240000   0.024947461   -0.37215546     0.017596511   -0.3171619     -0.0027225727 
    241000   0.025356983   -0.37451156     0.016865716   -0.31963491    -5.0442386e-05
    242000   0.024725624   -0.37527532     0.018238141   -0.31997267     0.00083964059
    243000   0.02439789    -0.37549581     0.017306039   -0.32161655     0.002920697  
    244000   0.025224359   -0.37672715     0.017327726   -0.32158729    -0.0020539936 
    245000   0.023794553   -0.37717928     0.016517666   -0.32499281     0.0016594302 
    246000   0.024079668   -0.37713233     0.016905267   -0.32413086     0.00025803424
    247000   0.024341073   -0.37697726     0.01651511    -0.3239741      0.0061510107 
    248000   0.024839877   -0.37685336     0.016644573   -0.32297301    -0.001120514  
    249000   0.024518606   -0.37798076     0.017008296   -0.32421828     0.003160021  
    250000   0.025517744   -0.37847924     0.017827422   -0.32239989     0.00036415199
    251000   0.025291529   -0.37856069     0.018395998   -0.32225188     0.00036504264
    252000   0.025093802   -0.37984259     0.01828387    -0.3239423      0.0050193762 
    253000   0.025407539   -0.38217756     0.017819288   -0.32627155    -0.0015383161 
    254000   0.026145272   -0.38487517     0.01675347    -0.3289291     -0.0010627174 
    255000   0.026474679   -0.3882358      0.01756422    -0.33098518     0.0018425346 
    256000   0.026920421   -0.39110788     0.017050928   -0.33370237     0.0045821279 
    257000   0.025459391   -0.39124511     0.017780886   -0.33529977     8.9503505e-05
    258000   0.027526689   -0.3940772      0.018137467   -0.33467633     0.004536227  
    259000   0.026186486   -0.39615008     0.018843956   -0.33805173    -0.0019580988 
    260000   0.026164874   -0.40002192     0.019411453   -0.34138847     0.0025058233 
    261000   0.027805755   -0.40225954     0.018524881   -0.34205293    -0.00061292534
    262000   0.025910364   -0.40270697     0.017384822   -0.34648167    -0.0011984413 
    263000   0.027002691   -0.40513275     0.018498587   -0.34615626     0.0025446472 
    264000   0.026257296   -0.40717884     0.018149079   -0.34966923     0.0012943946 
    265000   0.026196124   -0.40764956     0.01815078    -0.35022994     0.0022274487 
    266000   0.027150907   -0.40740196     0.017851969   -0.34884991     0.0013857407 
    267000   0.02729872    -0.40725118     0.018594057   -0.34773546     0.0033568122 
    268000   0.026707806   -0.40740609     0.018170148   -0.34920008    -0.0014613583 
    269000   0.026379728   -0.4086973      0.018654972   -0.35049827     0.0029401109 
    270000   0.026978646   -0.40897616     0.018376049   -0.35015825     0.0035589455 
    271000   0.02716356    -0.40872778     0.01840872    -0.3496         5.4793637e-05
    272000   0.02711365    -0.40872109     0.019102653   -0.3489742     -0.0025584882 
    273000   0.027668758   -0.41025933     0.020515027   -0.34826795     0.0019275842 
    274000   0.028153887   -0.41340786     0.019035267   -0.352169      -0.0013761163 
    275000   0.026670292   -0.41409852     0.019632905   -0.35448599    -0.0020804061 
    276000   0.028185129   -0.41606716     0.019199707   -0.35461704     0.0048738004 
    277000   0.028188656   -0.41996961     0.019463082   -0.35825082     0.0042068271 
    278000   0.02811738    -0.42331235     0.01879091    -0.36237258     0.00019524814
    279000   0.028594868   -0.42547542     0.020327229   -0.36228356    -0.0013536075 
    280000   0.027828672   -0.42817488     0.018677778   -0.36778102     0.0043354401 
    281000   0.027968519   -0.42913256     0.019367785   -0.36783906     0.0044363091 
    282000   0.02940179    -0.43084543     0.019984748   -0.36678645    -0.00124419   
    283000   0.028540124   -0.43142132     0.019293285   -0.36934547     0.0012665425 
    284000   0.029282764   -0.43413399     0.019576687   -0.37066149     0.00024259651
    285000   0.030243423   -0.43615392     0.02027323    -0.37054482     0.00046078074
    286000   0.030419135   -0.43963226     0.020523047   -0.37350994    -0.0024726518 
    287000   0.029063647   -0.44268396     0.019619313   -0.3794973      0.00044419086
    288000   0.028366971   -0.4446229      0.02050707    -0.38159283     0.0022640371 
    289000   0.030148822   -0.4473871      0.019344896   -0.38284815     0.001496075  
    290000   0.029596193   -0.44862571     0.021525868   -0.3827342      0.00013872007
    291000   0.030017461   -0.45133407     0.020329479   -0.38600745     0.0029334681 
    292000   0.029955074   -0.45158825     0.019128489   -0.38755614     0.0024974939 
    293000   0.031059187   -0.45336964     0.01960539    -0.38720552     0.002759021  
    294000   0.030227334   -0.45458466     0.021933649   -0.38733926    -0.00052289449
    295000   0.03090695    -0.45826928     0.020271888   -0.39166687     0.0034702728 
    296000   0.030463423   -0.4599779      0.020356555   -0.3939557      0.0020160272 
    297000   0.028748933   -0.46170507     0.020484639   -0.39812486     0.0035143553 
    298000   0.030430977   -0.46377892     0.020814846   -0.39734706     0.0028888668 
    299000   0.029641183   -0.46543783     0.020731191   -0.40027355    -0.0036302307 
    300000   0.032206199   -0.47087609     0.021079152   -0.40151881     0.0053940298 
    301000   0.031161952   -0.47378786     0.021065161   -0.40600992     0.0051674569 
    302000   0.029469564   -0.47455786     0.020144463   -0.41023757     0.0015880208 
    303000   0.02952577    -0.47652981     0.020321892   -0.41194783     0.0026216796 
    304000   0.030272223   -0.47815029     0.021350096   -0.41142115     0.0042682317 
    305000   0.03197922    -0.47940349     0.022435543   -0.40903006     0.0030780736 
    306000   0.031481833   -0.48255533     0.020963646   -0.4143994      5.9113774e-05
    307000   0.03109176    -0.48305382     0.021233887   -0.41521238     0.0041012963 
    308000   0.032071771   -0.48381273     0.020899264   -0.41483685     0.0018560512 
    309000   0.031764465   -0.48470618     0.02161275    -0.41547747     0.0052580205 
    310000   0.032974755   -0.48780542     0.022587791   -0.4157874      0.00061543006
    311000   0.032258756   -0.48912437     0.021948581   -0.41881887    -9.0010121e-05
    312000   0.032650584   -0.49079592     0.022569279   -0.41928237     0.0016815468 
    313000   0.030932582   -0.49172604     0.022795174   -0.42256193     0.00073667901
    314000   0.031569224   -0.49150625     0.022087314   -0.42209566    -0.0024068693 
    315000   0.032528077   -0.49298332     0.021094212   -0.42312848     0.0008972276 
    316000   0.031976226   -0.49444866     0.021619329   -0.42489594     0.0019144332 
    317000   0.031472215   -0.49455665     0.02148922    -0.42588956    -0.0019563173 
    318000   0.032063381   -0.49464862     0.022200588   -0.42438399     0.0022133477 
    319000   0.031348923   -0.4957703      0.023244611   -0.42553264    -0.0053354788 
    320000   0.032838891   -0.49865272     0.022865605   -0.42656056     0.00071386387
    321000   0.032084879   -0.49797613     0.02238062    -0.42749924    -0.0051595227 
    322000   0.032433567   -0.49910052     0.022173071   -0.42830848     0.0053910818 
    323000   0.032076453   -0.50003104     0.021981779   -0.42996563     0.0046570225 
    324000   0.034154685   -0.50158939     0.022010952   -0.42837946     0.0031864781 
    325000   0.033131335   -0.50421831     0.023291327   -0.43126204    -0.00073668722
    326000   0.03250228    -0.50497284     0.022214613   -0.43403626     0.0075603605 
    327000   0.033053516   -0.50541414     0.022134649   -0.43373121    -0.0015252927 
    328000   0.033215779   -0.50577422     0.022060277   -0.43392242     0.0013844028 
    329000   0.032685611   -0.50553708     0.022433655   -0.43410664    -3.2227239e-05
    330000   0.03406218    -0.51023549     0.023710263   -0.43546492     0.0059912131 
    331000   0.035342057   -0.51359308     0.023011897   -0.4376023     -0.00094075306
    332000   0.033720348   -0.5161897      0.024426832   -0.44121498     0.0011433979 
    333000   0.033913708   -0.51935844     0.023242596   -0.4452781      0.0037762929 
    334000   0.034184361   -0.52306211     0.02357109    -0.44824756     0.0011122069 
    335000   0.033442669   -0.52572395     0.023084424   -0.45250789     0.0012317188 
    336000   0.033382603   -0.52758153     0.024467588   -0.45307234     0.00048046897
    337000   0.033639352   -0.52943687     0.022880514   -0.45612988    -0.0036101043 
    338000   0.033865855   -0.53052089     0.023448399   -0.45630648     0.0028094396 
    339000   0.034892887   -0.53155768     0.023101755   -0.45615036     0.0050154204 
    340000   0.034102881   -0.5325682      0.022463982   -0.4589829     -0.002771862  
    341000   0.034551718   -0.53401024     0.022828926   -0.45938718     0.0061668738 
    342000   0.032989855   -0.53458783     0.023623342   -0.46151163    -0.0012846655 
    343000   0.034019213   -0.53651981     0.024421096   -0.46110281     0.0018168698 
    344000   0.034952602   -0.53805575     0.024035026   -0.46162565     0.0010473599 
    345000   0.033741253   -0.54139937     0.023648859   -0.46717129     0.0057129153 
    346000   0.035618448   -0.54435115     0.022483166   -0.46847478     0.00016996709
    347000   0.034136258   -0.54453601     0.023272232   -0.47009242     0.0023565377 
    348000   0.034070381   -0.5456135      0.023966576   -0.47057432    -0.00067877058
    349000   0.035373408   -0.54648025     0.024112266   -0.46934211     0.00036467249
    350000   0.035059711   -0.5469072      0.024258173   -0.47009339    -0.0005090374 
    351000   0.035197852   -0.54678303     0.025114103   -0.46890621    -0.00077167912
    352000   0.036590257   -0.54846839     0.024719556   -0.46889886     0.0048507406 
    353000   0.035717968   -0.54973143     0.023938119   -0.47225092    -0.0052913242 
    354000   0.034726876   -0.55025338     0.024132209   -0.47406447     0.001225842  
    355000   0.034765584   -0.55032941     0.024741043   -0.47347363    -0.00083616836
    356000   0.035040905   -0.55016347     0.024902743   -0.47273328    -0.0020897014 
    357000   0.036118485   -0.55037427     0.026546514   -0.46968499     0.0052841893 
    358000   0.03663016    -0.55023601     0.024861378   -0.47046484     0.00028419156
    359000   0.037206546   -0.55205749     0.026278219   -0.47000546    -0.00036132423
    360000   0.036112721   -0.55422492     0.025632228   -0.47445855    -0.0021655692 
    361000   0.036403524   -0.55535654     0.025793446   -0.47499304     0.0001455435 
    362000   0.037214766   -0.55590603     0.024769642   -0.47535025    -0.0001166746 
    363000   0.037925024   -0.55879282     0.025042354   -0.47689963     0.0031481434 
    364000   0.036770285   -0.56043132     0.026145928   -0.47916555    -0.0037443529 
    365000   0.037430757   -0.56190901     0.025977822   -0.47982128     0.00076094234
    366000   0.037101237   -0.56155459     0.024409579   -0.48152906     0.0038552169 
    367000   0.03686254    -0.56191996     0.025439596   -0.48122223    -0.0053534144 
    368000   0.03843783