LAMMPS (22 Jul 2025)
OMP_NUM_THREADS environment is not set. Defaulting to 1 thread.
  using 1 OpenMP thread(s) per MPI task
package omp 0
using multi-threaded neighbor list subroutines
# Input Script of lammps for assembly simulation of polimeric network.
# Main code is based on: https://github.com/PipeB62/Hydrogel-Simulation
# Patchy particles are with bond style.

# Felipe Benavides modified by Fco. Vazquez

# Initialization
units lj
dimension 3
boundary p p p

# Styles of atoms and that stuff
atom_style full
bond_style harmonic
angle_style harmonic
pair_style hybrid/overlay zero 0.0 lj/cut/omp 1.12 table/omp linear 5000000 threebody/table

newton on

# Create simulaiton box
region simulation_box block -$L $L -$L $L -$L $L
region simulation_box block -9.796741 $L -$L $L -$L $L
region simulation_box block -9.796741 9.796741 -$L $L -$L $L
region simulation_box block -9.796741 9.796741 -9.796741 $L -$L $L
region simulation_box block -9.796741 9.796741 -9.796741 9.796741 -$L $L
region simulation_box block -9.796741 9.796741 -9.796741 9.796741 -9.796741 $L
region simulation_box block -9.796741 9.796741 -9.796741 9.796741 -9.796741 9.796741
# N-atom-types region-ID keyword value Is necesesary the extra/special/per/atom (# of special neighbors per atom)
create_box 4 simulation_box     bond/types 1     angle/types 2     extra/bond/per/atom 10     extra/angle/per/atom 6     extra/special/per/atom 10
Created orthogonal box = (-9.796741 -9.796741 -9.796741) to (9.796741 9.796741 9.796741)
  2 by 2 by 2 MPI processor grid

# Atom types
mass 1 1.0      # CL
mass 2 1.0      # MO
mass 3 1.0      # PA
mass 4 1.0      # PB

# Coefficients
include potential.in
# Script with the pair-wise interaction and bonds between particles

bond_coeff 1 100.0 0.45
angle_coeff 1 100.0 180
angle_coeff 2 100.0 109.4712
pair_coeff 1 3 zero 0.5
pair_coeff 1 4 zero 0.5
pair_coeff 2 3 zero 0.5
pair_coeff 2 4 zero 0.5
pair_coeff 3 3 zero 0.5
pair_coeff 1 1 lj/cut/omp 1.0 1.0 1.12
pair_coeff 2 2 lj/cut/omp 1.0 1.0 1.12
pair_coeff 1 2 lj/cut/omp 1.0 1.0 1.12
pair_coeff 3 4 table/omp sysFiles/pachTab.table POT 0.6 # sw/omp sysFiles/patchyPot.sw NULL NULL PA PB
Reading pair table potential file sysFiles/pachTab.table with DATE: 2024-07-08
WARNING: 7 of 1000000 force values in table POT are inconsistent with -dE/dr.
WARNING:  Should only be flagged at inflection points (src/pair_table.cpp:469)
pair_coeff 4 4 table/omp sysFiles/pachTab.table POT 0.6 # sw/omp sysFiles/patchyPot.sw NULL NULL PA PB
Reading pair table potential file sysFiles/pachTab.table with DATE: 2024-07-08
WARNING: 7 of 1000000 force values in table POT are inconsistent with -dE/dr.
WARNING:  Should only be flagged at inflection points (src/pair_table.cpp:469)
pair_coeff * * threebody/table swapMech.3b NULL NULL PA PB
pair_modify pair lj/cut/omp shift yes


# Molecules
include molecules.in
# Script with all molecule information and create groups for computes

# Read the molecule information
molecule CL sysFiles/molecule.patchy.CL
Read molecule template CL:
# Patchy Cross-Linker
  1 molecules
  0 fragments
  0 bodies
  5 atoms with max type 3
  4 bonds with max type 1
  6 angles with max type 2
  0 dihedrals with max type 0
  0 impropers with max type 0
molecule MO sysFiles/molecule.patchy.MO
Read molecule template MO:
# Patchy Monomer
  1 molecules
  0 fragments
  0 bodies
  3 atoms with max type 4
  2 bonds with max type 1
  1 angles with max type 1
  0 dihedrals with max type 0
  0 impropers with max type 0

# Introduce the molecules
# ID style args keyword arg
region spawn_box block -$L $L -$L $L -$L $L
region spawn_box block -9.796741 $L -$L $L -$L $L
region spawn_box block -9.796741 9.796741 -$L $L -$L $L
region spawn_box block -9.796741 9.796741 -9.796741 $L -$L $L
region spawn_box block -9.796741 9.796741 -9.796741 9.796741 -$L $L
region spawn_box block -9.796741 9.796741 -9.796741 9.796741 -9.796741 $L
region spawn_box block -9.796741 9.796741 -9.796741 9.796741 -9.796741 9.796741

# create_atoms type style args keyword values
# style_random: N seed region-ID
# keyword_mol: template-ID seed
# keyword_overlap: overlap value = only insert if at least this distance from all existing atoms
# keyword_maxtry: maxtry value = number of attempts to insert a particle before failure
create_atoms 0 random ${NCL} ${seed1} spawn_box mol CL ${seed1} overlap 1.0 maxtry 5000 #xls
create_atoms 0 random 25 ${seed1} spawn_box mol CL ${seed1} overlap 1.0 maxtry 5000 
create_atoms 0 random 25 3234 spawn_box mol CL ${seed1} overlap 1.0 maxtry 5000 
create_atoms 0 random 25 3234 spawn_box mol CL 3234 overlap 1.0 maxtry 5000 
Created 125 atoms
  using lattice units in orthogonal box = (-9.796741 -9.796741 -9.796741) to (9.796741 9.796741 9.796741)
  create_atoms CPU = 0.009 seconds
create_atoms 0 random ${NMO} ${seed2} spawn_box mol MO ${seed2} overlap 1.0 maxtry 5000 #mon
create_atoms 0 random 475 ${seed2} spawn_box mol MO ${seed2} overlap 1.0 maxtry 5000 
create_atoms 0 random 475 6321 spawn_box mol MO ${seed2} overlap 1.0 maxtry 5000 
create_atoms 0 random 475 6321 spawn_box mol MO 6321 overlap 1.0 maxtry 5000 
Created 1425 atoms
  using lattice units in orthogonal box = (-9.796741 -9.796741 -9.796741) to (9.796741 9.796741 9.796741)
  create_atoms CPU = 0.007 seconds

# Create patchy particles
group CrossLinker type 1 3
125 atoms in group CrossLinker
group Monomer type 2 4
1425 atoms in group Monomer
group Patches type 3 4
1050 atoms in group Patches
group CL type 1
25 atoms in group CL
group MO type 2
475 atoms in group MO
group PA type 3
100 atoms in group PA
group CM type 1 2
500 atoms in group CM

# Neighbor list
neighbor 1.8 bin # extra-distance style
#neigh_modify delay 0 every 1 check no
#neigh_modify exclude molecule/intra CrossLinker
#neigh_modify exclude molecule/intra Monomer

# COMPUTES

# Compute global kinetic and potential energy and temperature
compute t all temp
compute p all pressure t
compute ep all pe
compute ek all ke
variable eT equal etotal
variable eB equal ebond
variable eA equal eangle
variable eM equal emol
variable ec equal ecouple
variable eC equal econserve

# Potencial energy per pair-wise interaction
compute wcaPair all pair lj/cut/omp epair
compute patchPair all pair table/omp epair
compute swapPair all pair threebody/table epair

# Compute the pressure
compute press all pressure t ke virial
compute pressVirial all pressure t virial
compute pressVirialMod all pressure t pair bond angle

# Computes for the stress
compute cstress all stress/atom t ke pair bond angle
compute cstressVirial all stress/atom t virial
compute cstressVirialMod all stress/atom t pair bond angle
compute stress all reduce sum c_cstress[*]
compute stressVirial all reduce sum c_cstressVirial[*]
compute stressVirialMod all reduce sum c_cstressVirialMod[*]

# Displacement of the central particles
compute disp CM displace/atom
compute redDisp CM reduce ave c_disp[*] # All, because yes

# Get the number of central particles per cluster
compute clusters all aggregate/atom 0.6                             # Create the clusters
compute Nclpart CM chunk/atom c_clusters compress yes discard yes   # Get the number of clusters
compute clsize CM property/chunk Nclpart count                      # Counts the atoms in each chunk
compute idcl CM property/chunk Nclpart id                           # Get the ids of the clusters

# DUMPS and FIXES

thermo ${NsaveStress}
thermo 1000

# Save global energies and temperature
fix Energy all ave/time 1 ${Nsave} ${Nsave} c_t c_wcaPair c_patchPair c_swapPair c_ep c_ek v_eT v_ec v_eC c_p v_eB v_eA v_eM c_redDisp[*] file ${Dir}/${file1_name}
fix Energy all ave/time 1 1000 ${Nsave} c_t c_wcaPair c_patchPair c_swapPair c_ep c_ek v_eT v_ec v_eC c_p v_eB v_eA v_eM c_redDisp[*] file ${Dir}/${file1_name}
fix Energy all ave/time 1 1000 1000 c_t c_wcaPair c_patchPair c_swapPair c_ep c_ek v_eT v_ec v_eC c_p v_eB v_eA v_eM c_redDisp[*] file ${Dir}/${file1_name}
fix Energy all ave/time 1 1000 1000 c_t c_wcaPair c_patchPair c_swapPair c_ep c_ek v_eT v_ec v_eC c_p v_eB v_eA v_eM c_redDisp[*] file /home/franvt/GitRepos/molDynLammps/polymericGels/gel-bonds-1/data/0.050.30.05500-2026-01-21-133721/${file1_name}
fix Energy all ave/time 1 1000 1000 c_t c_wcaPair c_patchPair c_swapPair c_ep c_ek v_eT v_ec v_eC c_p v_eB v_eA v_eM c_redDisp[*] file /home/franvt/GitRepos/molDynLammps/polymericGels/gel-bonds-1/data/0.050.30.05500-2026-01-21-133721/system_assembly.fixf

# Save Pressure and Stress tensor
fix fixStress5 all ave/time 1 ${NsaveStress} ${NsaveStress} c_p c_press[*] c_pressVirial[*] c_pressVirialMod[*] c_stress[*] c_stressVirial[*] c_stressVirialMod[*] file ${Dir}/${file2_name}
fix fixStress5 all ave/time 1 1000 ${NsaveStress} c_p c_press[*] c_pressVirial[*] c_pressVirialMod[*] c_stress[*] c_stressVirial[*] c_stressVirialMod[*] file ${Dir}/${file2_name}
fix fixStress5 all ave/time 1 1000 1000 c_p c_press[*] c_pressVirial[*] c_pressVirialMod[*] c_stress[*] c_stressVirial[*] c_stressVirialMod[*] file ${Dir}/${file2_name}
fix fixStress5 all ave/time 1 1000 1000 c_p c_press[*] c_pressVirial[*] c_pressVirialMod[*] c_stress[*] c_stressVirial[*] c_stressVirialMod[*] file /home/franvt/GitRepos/molDynLammps/polymericGels/gel-bonds-1/data/0.050.30.05500-2026-01-21-133721/${file2_name}
fix fixStress5 all ave/time 1 1000 1000 c_p c_press[*] c_pressVirial[*] c_pressVirialMod[*] c_stress[*] c_stressVirial[*] c_stressVirialMod[*] file /home/franvt/GitRepos/molDynLammps/polymericGels/gel-bonds-1/data/0.050.30.05500-2026-01-21-133721/stress_assembly.fixf

# Save the global cluster information
fix 1 CM ave/time 1 1 ${Ndump} c_idcl c_clsize file ${Dir}/${file3_name} mode vector
fix 1 CM ave/time 1 1 1000 c_idcl c_clsize file ${Dir}/${file3_name} mode vector
fix 1 CM ave/time 1 1 1000 c_idcl c_clsize file /home/franvt/GitRepos/molDynLammps/polymericGels/gel-bonds-1/data/0.050.30.05500-2026-01-21-133721/${file3_name} mode vector
fix 1 CM ave/time 1 1 1000 c_idcl c_clsize file /home/franvt/GitRepos/molDynLammps/polymericGels/gel-bonds-1/data/0.050.30.05500-2026-01-21-133721/clust_assembly.fixf mode vector

# Save atom positions with cluster id
dump dumpID all custom ${Ndump} ${Dir}/traj/${file5_name} id mol c_clusters type x y z vx vy vz
dump dumpID all custom 1000 ${Dir}/traj/${file5_name} id mol c_clusters type x y z vx vy vz
dump dumpID all custom 1000 /home/franvt/GitRepos/molDynLammps/polymericGels/gel-bonds-1/data/0.050.30.05500-2026-01-21-133721/traj/${file5_name} id mol c_clusters type x y z vx vy vz
dump dumpID all custom 1000 /home/franvt/GitRepos/molDynLammps/polymericGels/gel-bonds-1/data/0.050.30.05500-2026-01-21-133721/traj/traj_assembly.*.dumpf id mol c_clusters type x y z vx vy vz
dump_modify dumpID pbc yes # remap atoms via periodic boundary conditions

# RUN SIMULATION

# Brownian Dynamics using Langevin Thermostat

timestep ${tstep}
timestep 0.001

fix VelVerlet all nve # Use Velocity Verlet integrator

# First elevate the temperature
fix ThermoLng all langevin 0.0 ${temp} ${damp} ${seed3} tally yes zero no # Brownian Dynamics: langevin + nve
fix ThermoLng all langevin 0.0 0.05 ${damp} ${seed3} tally yes zero no 
fix ThermoLng all langevin 0.0 0.05 1 ${seed3} tally yes zero no 
fix ThermoLng all langevin 0.0 0.05 1 2010 tally yes zero no 
run ${stepsheat}
run 500000
WARNING: Using a manybody potential with bonds/angles/dihedrals and special_bond exclusions (src/pair.cpp:250)
Hybrid pair style last /omp style table/omp
Last active /omp style is angle_style harmonic/omp
Neighbor list info ...
  update: every = 1 steps, delay = 0 steps, check = yes
  max neighbors/atom: 2000, page size: 100000
  master list distance cutoff = 2.92
  ghost atom cutoff = 2.92
  binsize = 1.46, bins = 14 14 14
  7 neighbor lists, perpetual/occasional/extra = 6 1 0
  (1) pair zero, perpetual, skip from (7)
      attributes: half, newton on, omp
      pair build: skip/omp
      stencil: none
      bin: none
  (2) pair lj/cut/omp, perpetual, skip from (7)
      attributes: half, newton on, omp
      pair build: skip/omp
      stencil: none
      bin: none
  (3) pair table/omp, perpetual, skip from (7)
      attributes: half, newton on, omp
      pair build: skip/omp
      stencil: none
      bin: none
  (4) pair threebody/table, perpetual, skip from (6)
      attributes: full, newton on, omp
      pair build: skip/omp
      stencil: none
      bin: none
  (5) compute aggregate/atom, occasional, copy from (6)
      attributes: full, newton on, omp
      pair build: copy
      stencil: none
      bin: none
  (6) neighbor class addition, perpetual
      attributes: full, newton on, omp
      pair build: full/bin/omp
      stencil: full/bin/3d
      bin: standard
  (7) neighbor class addition, perpetual, half/full from (6)
      attributes: half, newton on, omp
      pair build: halffull/newton/omp
      stencil: none
      bin: none
Per MPI rank memory allocation (min/avg/max) = 20.03 | 20.03 | 20.03 Mbytes
   Step          Temp          E_pair         E_mol          TotEng         Press     
         0   0              0.00041490155  0.15480456     0.15521947    -0.21361809   
      1000   0.038128318    0              0.00013757075  0.057293149    0.0036255378 
      2000   0.0001553194   8.543009e-08   0.020977048    0.021209962    0.06836934   
      3000   0.0053605035   0              0.0001566732   0.0081922409   0.0024773727 
      4000   0.00032052098  0              0.0030278828   0.0035083541  -0.026562142  
      5000   0.0011105973   0              0.00027894739  0.0019437685  -0.00052598729
      6000   0.00052872688  0              0.00073390716  0.0015264858   0.0095531356 
      7000   0.00072927609  0              0.00040823029  0.0015014387  -1.2916085e-05
      8000   0.00072585491  0              0.00053299756  0.0016210775  -0.0032624547 
      9000   0.00081810771  1.3387704e-06  0.00052435466  0.0017520633   2.5567647e-06
     10000   0.00090272886  0              0.00060061031  0.00195383     0.0011494198 
     11000   0.0010201009   0              0.00066288446  0.0021920487  -0.00042247179
     12000   0.0011061632   0              0.00072884252  0.0023870168  -0.00024501148
     13000   0.0012001304   0              0.00078137006  0.0025804043   0.00057647913
     14000   0.0013260643   0              0.00085482435  0.0028426375   0.00081248246
     15000   0.0014119989   0              0.00096232635  0.0030789583  -0.00010765636
     16000   0.001535233    0              0.0010154688   0.0033168325  -0.00081754593
     17000   0.0016028884   4.7441589e-08  0.0010642477   0.0034670765   0.00030998609
     18000   0.001761206    0              0.0011497192   0.0037898237   0.0012944977 
     19000   0.0018432559   0              0.0012059735   0.0039690735   5.8014435e-05
     20000   0.0019092078   0              0.0012946994   0.0041566635  -0.0004458358 
     21000   0.0019928468   5.7799363e-07  0.0013610759   0.0043489956   0.00069973867
     22000   0.0021307457  -3.6672612e-09  0.0014649008   0.0046589537   0.00056709826
     23000   0.0025735969  -0.0015218821   0.0017283014   0.0040643241   0.00012611167
     24000   0.0024460339  -0.0016039619   0.0016864538   0.0037491756  -0.00025320026
     25000   0.0024684046  -0.0016016608   0.0016795706   0.003778128   -0.00025311389
     26000   0.0025122593  -0.001589946    0.001707866    0.0038838777   0.00073926743
     27000   0.003059753   -0.0031177114   0.002012252    0.0034812091   0.00066144898
     28000   0.0028744488  -0.0031717398   0.0020047545   0.0031419063   7.292593e-05 
     29000   0.0028250763  -0.003210074    0.0020204298   0.0030452362  -3.2013521e-05
     30000   0.0029586756  -0.0032123605   0.0020655468   0.0032883364   0.00016649409
     31000   0.003102151   -0.0032078802   0.0022673204   0.0037096648   0.00022022235
     32000   0.0032251426  -0.004139441    0.0021639363   0.0028590882   0.0011425176 
     33000   0.0033106147  -0.0048356386   0.0022191945   0.0023462742   0.00046933401
     34000   0.0034242329  -0.0048064176   0.0022292744   0.0025558924   0.00082004433
     35000   0.0033390042  -0.0048069904   0.0023892171   0.0025875018  -0.00020417673
     36000   0.0034887525  -0.0048385658   0.0023932307   0.0027844175   0.00017502983
     37000   0.0040807335  -0.0064241659   0.0028401122   0.0025330974   0.00024022972
     38000   0.0038661699  -0.0063784925   0.0026222091   0.00203923     0.00087589097
     39000   0.0050262804  -0.0094439598   0.0030641535   0.0011547501   0.00040701702
     40000   0.0040565885  -0.0094615097   0.0029640309  -0.00041652182 -0.00011135644
     41000   0.0040800984  -0.0096173745   0.0028677911  -0.00063338419  0.00030131406
     42000   0.0043573341  -0.0110681      0.0031080772  -0.0014282383   0.0013636407 
     43000   0.0041663046  -0.011088285    0.002885346   -0.0019575134   0.00040473915
     44000   0.004787039   -0.012489864    0.0032134367  -0.0021005016  -0.00037962583
     45000   0.0046470182  -0.012800731    0.0030789043  -0.0027557964   0.00069740058
     46000   0.0046750572  -0.012890548    0.0030772104  -0.0028052757  -0.00029404444
     47000   0.0055680896  -0.014145429    0.0034054174  -0.0023932656  -0.00065158766
     48000   0.0051770036  -0.014481024    0.0033600823  -0.0033604461   0.0017578118 
     49000   0.0049473003  -0.01529084     0.0036206013  -0.0042540758   0.002459839  
     50000   0.0051617937  -0.016060118    0.0033839357  -0.0049384874   0.00067531486
     51000   0.0060526315  -0.018518201    0.0037569644  -0.0056881472   0.00082142607
     52000   0.0057402022  -0.019146012    0.0038733167  -0.0066679467  -0.00042409425
     53000   0.0053518059  -0.019122752    0.0036494777  -0.0074507444  -0.00023706157
     54000   0.0053884576  -0.019302425    0.0036123453  -0.0076126076  -0.0002493152 
     55000   0.0054397362  -0.01931962     0.0036693316  -0.0074959482   0.00074747542
     56000   0.0054105097  -0.019324432    0.0038734592  -0.007340444    0.0013987397 
     57000   0.0055061322  -0.019312671    0.0036945703  -0.0073642305   0.0010860479 
     58000   0.0057668845  -0.020767811    0.0042849057  -0.0078381594  -0.00054263523
     59000   0.0063220148  -0.023315919    0.0045152534  -0.0093237619   0.00030372781
     60000   0.0072038714  -0.025563658    0.0044906584  -0.010274164    0.0010540371 
     61000   0.0071080404  -0.027589245    0.0048429271  -0.012091136    0.00049998514
     62000   0.0067414756  -0.030146141    0.0048432965  -0.015197156   -0.00013814254
     63000   0.0064212682  -0.030379765    0.0043930029  -0.016361073    0.00094915402
     64000   0.0075637185  -0.036139694    0.005129775   -0.019671661    0.00020276551
     65000   0.0072777132  -0.03914699     0.0052120075  -0.023025456    0.001656499  
     66000   0.0071593007  -0.040004288    0.0046005368  -0.024671729    0.0004733857 
     67000   0.0067983502  -0.040082606    0.0046209882  -0.025270672   -0.00028178156
     68000   0.0069702489  -0.040239498    0.0047151027  -0.025075768    0.00023854663
     69000   0.0070103661  -0.041593512    0.0050554402  -0.026029307    0.00078452178
     70000   0.0075676525  -0.046009454    0.0056167791  -0.029048519    0.00025924906
     71000   0.0080106279  -0.047888888    0.004781959   -0.03109874     1.6246481e-05
     72000   0.0079264295  -0.050957349    0.0055875966  -0.033487779    0.0023604212 
     73000   0.0083642732  -0.054358339    0.0057899053  -0.036030118    0.0017932649 
     74000   0.0079005286  -0.054280875    0.0051576842  -0.037280044   -0.00086955007
     75000   0.0085613956  -0.055574493    0.0052906961  -0.037449989   -0.00060955254
     76000   0.0078260307  -0.055715975    0.0054401137  -0.038544389   -0.00050323335
     77000   0.0076669074  -0.055861787    0.0052358428  -0.039133003    0.00042690537
     78000   0.0078587706  -0.055992739    0.0054434084  -0.03876878     0.0015405124 
     79000   0.0083173657  -0.057389925    0.0057388513  -0.039183075   -0.00023671199
     80000   0.0084081536  -0.057964235    0.0059512931  -0.039408849    0.00042535498
     81000   0.0087641525  -0.060379269    0.0059657061  -0.041275815    0.0014720792 
     82000   0.0094459575  -0.063051182    0.006291783   -0.042599604   -0.00074654384
     83000   0.0086472869  -0.065164728    0.00602687    -0.046175296   -0.00023846942
     84000   0.009199538   -0.066764137    0.0059204692  -0.047053264    0.0016777712 
     85000   0.0088718552  -0.067123107    0.006171694   -0.047652216    0.0013274618 
     86000   0.0090739723  -0.068661559    0.0066723232  -0.048387059   -0.00044600661
     87000   0.0092746203  -0.070149663    0.0069639421  -0.049282765    0.00043087755
     88000   0.0098980256  -0.072023669    0.0062248401  -0.050961369   -0.00052688475
     89000   0.0092168066  -0.0720402      0.0063412065  -0.051882703    0.0018171324 
     90000   0.0090390777  -0.072133743    0.0063281985  -0.052255675   -0.00014712378
     91000   0.0090695083  -0.072149706    0.0062650307  -0.05228919     3.4453358e-05
     92000   0.010890887   -0.078762476    0.0079836503  -0.054453035   -0.00064423948
     93000   0.010540057   -0.080964005    0.0069947822  -0.058169336   -0.0012726345 
     94000   0.01082992    -0.085589344    0.0080199381  -0.061335007   -0.0022984935 
     95000   0.010384096   -0.088308021    0.0071975019  -0.065544424   -7.3429732e-05
     96000   0.01021528    -0.089697276    0.0069171888  -0.067467054    0.0026447459 
     97000   0.010356637   -0.092341079    0.0070102597  -0.069805887   -0.00058532735
     98000   0.010183065   -0.094176653    0.0068755768  -0.072036333   -0.0014542168 
     99000   0.009894471   -0.094536693    0.0068318292  -0.072872733    4.2613603e-07
    100000   0.010927518   -0.098550946    0.0071999603  -0.074970283    0.0014690641 
    101000   0.011325339   -0.10057359     0.0070604053  -0.07653614     0.0023092444 
    102000   0.010943755   -0.10218403     0.0069997374  -0.078779254   -0.0017278911 
    103000   0.010608176   -0.10379804     0.0073215923  -0.08057445    -0.00034328163
    104000   0.010988132   -0.10805691     0.0086855358  -0.082899814   -9.954112e-05 
    105000   0.011916537   -0.11142057     0.0077934816  -0.085763815   -0.00038909396
    106000   0.011943045   -0.11220258     0.0080153207  -0.086284248    0.00067782175
    107000   0.011185228   -0.11334688     0.0077433955  -0.088836463   -0.00013195438
    108000   0.011049893   -0.11491496     0.0074183686  -0.090932449   -0.00089828138
    109000   0.010634406   -0.11529259     0.0073846768  -0.091966591    0.0023399218 
    110000   0.010594262   -0.11531088     0.0073448641  -0.09208488     0.0011836037 
    111000   0.010957836   -0.1154352      0.0076269637  -0.091382089   -0.00083193467
    112000   0.011134567   -0.11553447     0.0074832994  -0.091360099    0.00012887777
    113000   0.012274283   -0.11809006     0.0075379551  -0.09215256     0.0022316736 
    114000   0.012146566   -0.12211545     0.0083173026  -0.09559005     0.0025095667 
    115000   0.0126121     -0.12383394     0.0083109993  -0.096616996   -0.0030088669 
    116000   0.012567627   -0.12638213     0.0085303749  -0.099012481   -0.0012471002 
    117000   0.01163274    -0.1272944      0.0090583348  -0.10079822     0.0022469728 
    118000   0.012183231   -0.12930494     0.0086784611  -0.10236342     0.003221706  
    119000   0.012772264   -0.13053997     0.0083981592  -0.10299577     0.0021874771 
    120000   0.012129278   -0.13230717     0.0089445617  -0.10518043    -0.0029183822 
    121000   0.012578366   -0.13205005     0.00829416    -0.10490052     0.0018766511 
    122000   0.012331756   -0.132485       0.0084562489  -0.10554305    -0.00076858872
    123000   0.013510156   -0.13412246     0.008844235   -0.10502607     0.00031630033
    124000   0.012493551   -0.13379201     0.0083624056  -0.10670137    -0.0016372632 
    125000   0.013347797   -0.13783232     0.0094050073  -0.10841853     0.00072055801
    126000   0.013582547   -0.14180588     0.0090600864  -0.11238512    -0.00047686644
    127000   0.013308489   -0.14357652     0.008810439   -0.11481623    -0.00047294936
    128000   0.012878965   -0.14383014     0.009079667   -0.11544449    -0.00022248265
    129000   0.013588199   -0.14804077     0.0093091585  -0.11836246     0.00065198181
    130000   0.013632079   -0.14999806     0.0096729409  -0.11989019    -5.0308319e-05
    131000   0.013750755   -0.15016417     0.0091012968  -0.12045005    -8.8462614e-05
    132000   0.01338955    -0.15149996     0.0099347894  -0.1214938     -0.0026255916 
    133000   0.014236313   -0.15300747     0.0093641795  -0.1223026      0.001650872  
    134000   0.013771211   -0.15306879     0.0092520463  -0.12317326     0.0015072085 
    135000   0.013923824   -0.15300842     0.0092476478  -0.12288852    -0.00063591863
    136000   0.015096809   -0.15719822     0.010308506   -0.12425911    -0.0010094275 
    137000   0.01468261    -0.15914635     0.0096046417  -0.12753201     0.0015438206 
    138000   0.015332349   -0.16177068     0.0096025724  -0.12918442     0.0021670163 
    139000   0.014585174   -0.16491327     0.010875394   -0.13217423     0.00033636069
    140000   0.014272155   -0.16870443     0.010300795   -0.13700921     0.00072274496
    141000   0.014542991   -0.16973947     0.010942222   -0.13699683    -0.0004060064 
    142000   0.016054339   -0.17633016     0.010917722   -0.14134647     0.00054018612
    143000   0.014978853   -0.17835274     0.010653474   -0.14524548     0.0032974773 
    144000   0.014575097   -0.17977942     0.010269757   -0.14766112     0.00028641121
    145000   0.015502366   -0.18182364     0.010151893   -0.1484332      0.00072944483
    146000   0.015468637   -0.18214297     0.010070248   -0.14888474     0.00021969119
    147000   0.014923177   -0.18320371     0.010935227   -0.14989816    -0.00019865131
    148000   0.015485035   -0.18325964     0.010351254   -0.14969581     0.0018502432 
    149000   0.015762969   -0.1854783      0.010372041   -0.15147706     0.0029291009 
    150000   0.015262796   -0.18775702     0.010564048   -0.15431354     0.00096052267
    151000   0.016502229   -0.19289841     0.011295494   -0.15686554    -0.00052757915
    152000   0.015975887   -0.19525601     0.011531379   -0.15977626    -0.00020676038
    153000   0.016476839   -0.19731937     0.010869103   -0.16175096     6.0060756e-05
    154000   0.016503778   -0.20057495     0.010826885   -0.16500837     0.0029006776 
    155000   0.015434652   -0.20064074     0.010364612   -0.16713909     0.0011046147 
    156000   0.016477544   -0.20199078     0.010745672   -0.16654474     0.0029409374 
    157000   0.015792848   -0.20214434     0.01083717    -0.16763318    -0.001333785  
    158000   0.015943044   -0.20338197     0.011067944   -0.16841489     0.00088747502
    159000   0.016195118   -0.20492875     0.010817104   -0.16983464    -0.0007681168 
    160000   0.015726287   -0.2060822      0.010905203   -0.17160279     0.0020121032 
    161000   0.016412889   -0.20679817     0.010818323   -0.17137639    -0.0025676206 
    162000   0.017371451   -0.21043187     0.011941664   -0.17244984     0.00086372854
    163000   0.01710178    -0.21208694     0.011387513   -0.17506331     0.005330089  
    164000   0.017577439   -0.21523384     0.011632675   -0.17725201     0.0017624606 
    165000   0.016803151   -0.21557835     0.011376331   -0.17901356     0.0029154422 
    166000   0.016713637   -0.21598925     0.011497531   -0.17943744     0.0049026029 
    167000   0.01717307    -0.21720831     0.012216911   -0.17924841    -5.7118179e-05
    168000   0.017425942   -0.21975499     0.01181236    -0.18182058    -0.0008796433 
    169000   0.018259652   -0.22300686     0.013288911   -0.18234614    -0.0012608598 
    170000   0.018884054   -0.22841321     0.012078642   -0.18802676     0.0013166432 
    171000   0.018211715   -0.23085154     0.012224572   -0.19132703     0.0036160785 
    172000   0.018019011   -0.23323755     0.011863564   -0.19436291     0.0013142232 
    173000   0.018478601   -0.23594171     0.012387191   -0.1958545      0.0025353753 
    174000   0.019309915   -0.24025314     0.013742846   -0.1975641      0.0010179731 
    175000   0.018610772   -0.24230556     0.013091335   -0.20131608     0.0019307204 
    176000   0.017938363   -0.24289694     0.012467679   -0.20353908     0.0018256842 
    177000   0.018240111   -0.24297328     0.012047335   -0.20358343     0.0040611566 
    178000   0.017949874   -0.24317555     0.012265848   -0.20400226     0.0028642484 
    179000   0.018559814   -0.24467225     0.012319516   -0.20453097     0.003530029  
    180000   0.018505918   -0.24482423     0.012592519   -0.20449075    -0.00093024195
    181000   0.018292738   -0.24476084     0.012719613   -0.20461982     0.0030244899 
    182000   0.018185471   -0.24456925     0.012643684   -0.20466496     0.0016444048 
    183000   0.017911758   -0.2447534      0.011970755   -0.20593235     0.00090132606
    184000   0.018675953   -0.2485372      0.012884454   -0.20765689     0.0012733129 
    185000   0.018354448   -0.24890673     0.012584037   -0.20880878     0.0040096297 
    186000   0.018517559   -0.24965728     0.012924192   -0.20897467     0.0013193882 
    187000   0.018439126   -0.25067403     0.013227949   -0.20980523    -0.00011068297
    188000   0.019415765   -0.2514874      0.0132999     -0.20908264     0.001718903  
    189000   0.018977225   -0.2520795      0.013588735   -0.21004329     0.0010613898 
    190000   0.019257167   -0.25493343     0.012724968   -0.21334135     0.0030966102 
    191000   0.020079118   -0.25760768     0.013382079   -0.21412636    -9.5853782e-05
    192000   0.019858512   -0.25859704     0.013447874   -0.21538061     0.00096237137
    193000   0.019100638   -0.26040803     0.013435794   -0.21833977     0.0070556802 
    194000   0.019879298   -0.26159057     0.013719989   -0.21807087     0.0033821334 
    195000   0.019869262   -0.26189253     0.013549479   -0.21855839     0.00091613547
    196000   0.019449136   -0.26294751     0.013994998   -0.21979763     0.0016216911 
    197000   0.020408878   -0.26607077     0.013322378   -0.22215483     0.0029456269 
    198000   0.020921082   -0.26974        0.013955289   -0.22442334    -0.0010935249 
    199000   0.019556379   -0.26993481     0.013076007   -0.22754316     0.0019439993 
    200000   0.020469512   -0.27244966     0.013748806   -0.2280164      0.0012983646 
    201000   0.021781662   -0.27708804     0.015229039   -0.22920759     0.00035483881
    202000   0.021712404   -0.27873098     0.014382946   -0.23180044     0.00065098104
    203000   0.022887506   -0.28593389     0.015317361   -0.23630742     0.0019276001 
    204000   0.022623627   -0.28792615     0.014112951   -0.23989966     0.00094880292
    205000   0.020784073   -0.28858716     0.014525378   -0.24290579     0.0030038232 
    206000   0.021529641   -0.29246914     0.014758052   -0.24543746    -0.0031293421 
    207000   0.021486609   -0.29395433     0.013956887   -0.24778832     0.0019000899 
    208000   0.022486866   -0.29694044     0.015192917   -0.24803899     0.00072528829
    209000   0.021446415   -0.29894719     0.015022415   -0.25177591     0.0033501889 
    210000   0.021367527   -0.3003227      0.01412729    -0.2541648      0.00213095   
    211000   0.021072462   -0.30065971     0.014427448   -0.25464397     0.0019421535 
    212000   0.021757994   -0.30362155     0.015995358   -0.25501026    -0.002219559  
    213000   0.022709924   -0.30823297     0.015529602   -0.25866046     0.00090537312
    214000   0.021642799   -0.30857682     0.015542251   -0.26059131     0.0024104642 
    215000   0.02226404    -0.30999628     0.014971652   -0.26165012     0.0014454572 
    216000   0.021669534   -0.31005889     0.014341775   -0.26323378    -0.0019136242 
    217000   0.022338283   -0.31295547     0.015274415   -0.26419525     0.0038534243 
    218000   0.022893955   -0.3174454      0.016697338   -0.26642929     0.0030470504 
    219000   0.023220606   -0.31970361     0.015636324   -0.26925885     0.0051133912 
    220000   0.02328918    -0.32301843     0.015310788   -0.27279641     0.0034387204 
    221000   0.024963219   -0.32511606     0.014789148   -0.27290625     0.0044551    
    222000   0.022055944   -0.32468344     0.0160687     -0.27555217     0.0028910399 
    223000   0.023382413   -0.32640912     0.016437312   -0.27492082     0.0012749018 
    224000   0.02334455    -0.32860095     0.015511766   -0.27809495     0.0022035385 
    225000   0.022964841   -0.33007367     0.016119132   -0.2795295      0.00081223331
    226000   0.023181257   -0.33307716     0.015609658   -0.28271805     0.0024109821 
    227000   0.022984886   -0.33336916     0.015608668   -0.28330541    -0.0022667893 
    228000   0.023499307   -0.33769283     0.01618604    -0.28628057     0.001523978  
    229000   0.024650982   -0.34237465     0.016593508   -0.28882852     0.001493343  
    230000   0.024647094   -0.34478952     0.015964534   -0.29187819     0.0011098397 
    231000   0.023759637   -0.34557137     0.016534944   -0.29341997     0.0027266321 
    232000   0.024120219   -0.34921898     0.016629072   -0.29643292     0.0078896944 
    233000   0.023228894   -0.35111654     0.017285509   -0.29901017     0.0061474141 
    234000   0.025324937   -0.35354666     0.017247387   -0.29833638     0.0039730007 
    235000   0.024851002   -0.35504602     0.017252196   -0.30054137     0.0012150974 
    236000   0.023861785   -0.35482295     0.01661021    -0.30244315     0.003404089  
    237000   0.023973144   -0.35480352     0.016512639   -0.30235437     0.00021115858
    238000   0.023276608   -0.35511322     0.01624988    -0.30397095     0.003426427  
    239000   0.023659902   -0.35636021     0.017178648   -0.30371461     0.0049450246 
    240000   0.024754611   -0.3595442      0.016393245   -0.306043       0.00082344601
    241000   0.024757508   -0.35944097     0.017370758   -0.3049579      0.0015166171 
    242000   0.0245179     -0.36329954     0.017837129   -0.30870928     0.002651237  
    243000   0.025512285   -0.36825794     0.017367468   -0.31264673     0.011460698  
    244000   0.025708306   -0.36963549     0.017741383   -0.31335653     0.0068782594 
    245000   0.026677231   -0.37107338     0.01603596    -0.31504739     0.006235631  
    246000   0.02525188    -0.37397804     0.017909932   -0.31821473     0.0041112757 
    247000   0.025892135   -0.37411981     0.016512405   -0.31879427     0.0080441784 
    248000   0.025516792   -0.37598592     0.018040224   -0.3196952      0.0078628908 
    249000   0.02497463    -0.37732659     0.017160504   -0.32272831     0.0061133456 
    250000   0.026325784   -0.37955701     0.017814613   -0.3222792      0.0023256137 
    251000   0.026291419   -0.3822596      0.017632578   -0.32521533     0.00052180513
    252000   0.027459943   -0.38664704     0.017901145   -0.32758255     0.0055195741 
    253000   0.027618189   -0.3904437      0.018374605   -0.33066854    -0.0015497709 
    254000   0.025895768   -0.39095884     0.017916834   -0.33422342     0.00038100252
    255000   0.026375824   -0.39100845     0.018055621   -0.33341462     0.0031851008 
    256000   0.026742496   -0.39149829     0.017958458   -0.33345197     0.001762166  
    257000   0.025918815   -0.39149466     0.018034222   -0.3346073      0.004192847  
    258000   0.025844074   -0.39444707     0.018806866   -0.33689911     0.0042081767 
    259000   0.025689506   -0.39554703     0.018330167   -0.33870746    -0.00104076   
    260000   0.026048616   -0.39534076     0.017891156   -0.33840189     0.0054301719 
    261000   0.026661505   -0.39712442     0.017553408   -0.33960455    -0.001365302  
    262000   0.02620626    -0.3973721      0.01767742    -0.34041066     0.0053742871 
    263000   0.025596764   -0.39760788     0.018285422   -0.34095208     0.0085710634 
    264000   0.027474609   -0.39829464     0.019004299   -0.33810502     0.0061632747 
    265000   0.026317418   -0.39887277     0.017808559   -0.34161356     0.004267688  
    266000   0.026568025   -0.40144264     0.017624392   -0.34399192    -0.00086913222
    267000   0.026943049   -0.40432259     0.018890042   -0.34504405     0.003138647  
    268000   0.02756661    -0.40671463     0.018729161   -0.34666223     0.0046911015 
    269000   0.026958271   -0.40701236     0.019178228   -0.34742282     0.0027105349 
    270000   0.027462886   -0.40657147     0.018543392   -0.34686032     0.0039760281 
    271000   0.026561658   -0.40670378     0.018550108   -0.34833689     0.0040016805 
    272000   0.02583353    -0.40685766     0.018529415   -0.34960295     0.0030328941 
    273000   0.029671725   -0.41029109     0.017893326   -0.34791889     0.0047578355 
    274000   0.027446043   -0.4113288      0.018378154   -0.35180814     0.0054156301 
    275000   0.028788611   -0.41541116     0.020921421   -0.35133469     0.0016263774 
    276000   0.028970401   -0.41754005     0.021709051   -0.35240343     0.0047203409 
    277000   0.028199232   -0.41863195     0.019604544   -0.35675585     0.0039241409 
    278000   0.02861123    -0.41893642     0.018883051   -0.35716421     0.0061749936 
    279000   0.027628062   -0.41940718     0.020531214   -0.35746061     0.00053841223
    280000   0.028521859   -0.42070585     0.018927389   -0.35902328     0.0030889704 
    281000   0.028074752   -0.42039833     0.019379308   -0.35893406     0.0017879031 
    282000   0.028179781   -0.42300805     0.019114163   -0.36165149     0.0067001982 
    283000   0.029023486   -0.42459691     0.020218924   -0.36087085     0.0014885257 
    284000   0.029322043   -0.42639534     0.019302466   -0.36313819     0.0043535011 
    285000   0.02759078    -0.42686356     0.019938963   -0.36556512     0.00010066507
    286000   0.028167193   -0.4269728      0.020366728   -0.36438254     0.0052119319 
    287000   0.027553415   -0.42771333     0.019787835   -0.36662203    -0.0027507244 
    288000   0.028409209   -0.42959749     0.020115087   -0.36689608     0.0018164331 
    289000   0.029732806   -0.43258602     0.020973181   -0.36704241     0.0072658445 
    290000   0.029232567   -0.43397361     0.019795996   -0.37035705     0.0066856122 
    291000   0.028577005   -0.43415466     0.019050089   -0.37226672     0.0066208461 
    292000   0.029568783   -0.4362332      0.019946581   -0.37196206    -0.0025103791 
    293000   0.028511115   -0.43781038     0.020905819   -0.37416548     0.00052795362
    294000   0.028877317   -0.43792507     0.020385368   -0.37425167     0.0010473649 
    295000   0.031102165   -0.43899209     0.020955144   -0.3714138      0.0015841607 
    296000   0.030981705   -0.44077905     0.02092906    -0.37340741     0.0068479087 
    297000   0.031183766   -0.44354368     0.021954542   -0.37484367     0.006076083  
    298000   0.031180654   -0.44634283     0.020441055   -0.37916097     0.0063829442 
    299000   0.030551977   -0.44711296     0.020868882   -0.38044568     0.0025967284 
    300000   0.030321492   -0.44915098     0.021872244   -0.38182584     0.0091781413 
    301000   0.03056159    -0.44872099     0.020763599   -0.38214458     0.0020422389 
    302000   0.031088758   -0.44952984     0.021641563   -0.38128522     0.0063508406 
    303000   0.031092381   -0.45081154     0.020281663   -0.3839214      0.0014846483 
    304000   0.030190412   -0.45216379     0.021008238   -0.38589915     0.0057860624 
    305000   0.030143767   -0.45202879     0.020018773   -0.38682353     0.003431217  
    306000   0.029506848   -0.45408138     0.022019735   -0.38782993     0.0077987818 
    307000   0.031786067   -0.45654593     0.022944485   -0.3859531      0.0093849847 
    308000   0.031611934   -0.45828314     0.021833495   -0.38906234     0.0058160035 
    309000   0.031611029   -0.4577712      0.022772777   -0.38761247     0.006531952  
    310000   0.031893832   -0.45980796     0.022782895   -0.38921518     0.0054655358 
    311000   0.032272897   -0.46055556     0.021852273   -0.39032517     0.006611393  
    312000   0.031684532   -0.46085109     0.022271489   -0.39108347     0.0024171881 
    313000   0.032071224   -0.46406553     0.023345611   -0.39264412     0.0044043298 
    314000   0.031771343   -0.46669045     0.024139813   -0.39492437    -0.0035562486 
    315000   0.032062218   -0.46767249     0.021662044   -0.39794815     0.00020302145
    316000   0.032965897   -0.46930829     0.021932263   -0.39795908     0.00013981221
    317000   0.031960863   -0.47119494     0.022601247   -0.40068333     0.0067115086 
    318000   0.032866339   -0.4715544      0.021796861   -0.40048984     0.0053866407 
    319000   0.032967622   -0.47353099     0.023314504   -0.40079696     0.00052013713
    320000   0.033938236   -0.47854381     0.023827764   -0.40384154     0.0009339086 
    321000   0.03340458    -0.4798245      0.022460909   -0.40728905     0.0020554771 
    322000   0.033038478   -0.48222208     0.021741675   -0.41095466    -0.010874602  
    323000   0.033276785   -0.48220196     0.022534356   -0.40978463     0.00091233728
    324000   0.03435763    -0.48299112     0.021905409   -0.40958252     0.0018692855 
    325000   0.033642852   -0.48263823     0.02323774    -0.40896877     0.00047875189
    326000   0.031740841   -0.4822478      0.02295912    -0.41170814     0.0096312988 
    327000   0.032074966   -0.48281263     0.022669663   -0.41206155    -0.0022974246 
    328000   0.032546338   -0.48281233     0.021935571   -0.41208875     0.0018640039 
    329000   0.034435275   -0.48540251     0.023604457   -0.41017847     0.00049650946
    330000   0.03540026    -0.48813212     0.02342868    -0.41163731     0.005933207  
    331000   0.034397913   -0.48972637     0.023494481   -0.41466831     0.0044701698 
    332000   0.035238289   -0.49406858     0.024802266   -0.41644298     0.0018410664 
    333000   0.034312342   -0.49567099     0.024036072   -0.42019961    -0.0015739662 
    334000   0.035392813   -0.49766884     0.023976541   -0.42063733     0.0049770587 
    335000   0.035320232   -0.50035865     0.02418658    -0.42322591     0.0067390966 
    336000   0.03372548    -0.50128389     0.023524124   -0.42720418    -0.002725381  
    337000   0.034574827   -0.50149369     0.023961603   -0.42570331     0.0032012541 
    338000   0.035859375   -0.50268788     0.025098782   -0.42383473    -0.0034471664 
    339000   0.032888673   -0.50256041     0.024336647   -0.42892258     0.0056552434 
    340000   0.033992016   -0.50320308     0.022556648   -0.4296913     -0.0075690137 
    341000   0.034673086   -0.50294806     0.023897956   -0.42707403     0.0013920589 
    342000   0.03483199    -0.50304927     0.023482772   -0.42735222     0.0081278274 
    343000   0.034601776   -0.5058535      0.023639564   -0.43034476    -0.0011300966 
    344000   0.035358206   -0.50629481     0.024274748   -0.42901698     0.0022947353 
    345000   0.034257211   -0.50661956     0.024048359   -0.43121854     0.00289884   
    346000   0.036164434   -0.50716619     0.024142489   -0.42881205     0.0015952553 
    347000   0.035994376   -0.50886549     0.024127008   -0.43078175     0.011007243  
    348000   0.035124894   -0.5086555      0.023810786   -0.43219136     0.0032190048 
    349000   0.035942418   -0.5115927      0.024926232   -0.43278763    -0.0038481851 
    350000   0.035331878   -0.51191556     0.024668804   -0.43428313     0.0072676421 
    351000   0.035798525   -0.51168479     0.023900656   -0.43412099     0.009145004  
    352000   0.034234979   -0.51172939     0.02429615    -0.4361139     -0.003041096  
    353000   0.035190661   -0.51294684     0.0237571     -0.43643781     0.0074082933 
    354000   0.035816946   -0.51289294     0.02509507    -0.43410711    -0.0037322185 
    355000   0.036239306   -0.51487644     0.025739798   -0.43481276     0.0055984019 
    356000   0.036349454   -0.51563799     0.025117461   -0.43603153    -0.0025150261 
    357000   0.034751303   -0.51643205     0.025940043   -0.43839868     0.0055592048 
    358000   0.036412745   -0.51676565     0.023802773   -0.438379       0.014615241  
    359000   0.036053937   -0.51867155     0.025948449   -0.43867708     0.0042296639 
    360000   0.037398913   -0.5193413      0.024639546   -0.43863958     0.00019095477
    361000   0.038033329   -0.51897851     0.025633228   -0.4363321     -0.0019198688 
    362000   0.036712393   -0.52033739     0.02523405    -0.44007028     0.0059132399 
    363000   0.036638276   -0.52062439     0.025962247   -0.43974018     0.016591578  
    364000   0.036880666   -0.52317067     0.025114546   -0.44277082     0.0092247091 
    365000   0.036767261   -0.52383285     0.02468865    -0.44402889    -0.0014659444 
    366000   0.03783584    -0.52276794     0.025701899   -0.4403489     -0.0027370209 
    367000   0.039157071   -0.52469278     0.025426805   -0.44056826     0.0050237934 
    368000   0.037664276   -0.52431449     0.025726337   -0.44212819     0.00098673769
    369000   0.037225514   -0.52421399     0.026366648   -0.4420451      0.006563833  
    370000   0.036879454   -0.52674971     0.025579041   -0.44588718     0.0043942828 
    371000   0.037164238   -0.52681293     0.024966452   -0.44613608    -0.001445457  
    372000   0.038099429   -0.52748405     0.024731881   -0.44563989    -0.0038029573 
    373000   0.037808054   -0.52768559     0.026289559   -0.44472053     0.0073598038 
    374000   0.036680392   -0.5274757      0.025488924   -0.44700168     0.0082293933 
    375000   0.038008962   -0.52827042     0.026007196   -0.44528656     0.0025008622 
    376000   0.036788474   -0.52819511     0.026064583   -0.44698342     0.0051706498 
    377000   0.037182007   -0.52842197     0.025887095   -0.44679784     0.00047905208
    378000   0.038732183   -0.52940274     0.026414903   -0.44492705     0.0036085908 
    379000   0.039176448   -0.53136226     0.026192997   -0.44644251     0.0036440727 
    380000   0.038613363   -0.53377475     0.025372632   -0.45051944     0.0046460323 
    381000   0.038589469   -0.53437357     0.027029005   -0.44949771     0.0023901039 
    382000   0.03925676    -0.53754238     0.027031143   -0.45166408     0.0098852526 
    383000   0.038869218   -0.53697786     0.026023128   -0.45268852     0.01109052   
    384000   0.038177426   -0.53913068     0.027713      -0.45418849     0.010963276  
    385000   0.039708909   -0.53876114     0.025946818   -0.45328939     0.0056334344 
    386000   0.039034556   -0.54054798     0.02765217    -0.45438175     0.0040815446 
    387000   0.038953049   -0.54273925     0.027954898   -0.45639248     0.0054345362 
    388000   0.037921945   -0.54369431     0.026414735   -0.46043335     0.0049710551 
    389000   0.037811682   -0.54459031     0.027500074   -0.4604093      0.010686539  
    390000   0.040357736   -0.54342658     0.026708427   -0.4562206      0.016727732  
    391000   0.038696424   -0.54194638     0.027914008   -0.45602519     0.011322375  
    392000   0.037958766   -0.54235567     0.025996199   -0.45945806     0.017621312  
    393000   0.0390834     -0.54239936     0.026113213   -0.45769887     0.014468906  
    394000   0.03957483    -0.54438488     0.027353824   -0.45770711     0.011409401  
    395000   0.038762846   -0.54463003     0.028649226   -0.45787405     0.017631094  
    396000   0.038930248   -0.54524531     0.028664429   -0.45822318     0.013815804  
    397000   0.041654757   -0.54721673     0.028227442   -0.45654747     0.019856092  
    398000   0.041092379   -0.54787582     0.027732424   -0.45854459     0.015865513  
    399000   0.039064225   -0.55025084     0.02858065    -0.46311165     0.010128146  
    400000   0.040679203   -0.55103565     0.028409531   -0.46164668     0.014559991  
    401000   0.041454508   -0.55310848     0.028017931   -0.4629489      0.015124647  
    402000   0.041086229   -0.55281325     0.028390111   -0.46283356     0.010142698  
    403000   0.040673585   -0.55427618     0.027880891   -0.46542427     0.0086856317 
    404000   0.040019671   -0.55706393     0.02748043    -0.46959272     0.0022997606 
    405000   0.043521475   -0.55899093     0.027114456   -0.46663637     0.013820243  
    406000   0.042028157   -0.55876792     0.029089617   -0.46667674     0.0077985878 
    407000   0.041504132   -0.55907418     0.028294332   -0.46856381     0.0018674658 
    408000   0.041444928   -0.55873532     0.028067802   -0.46854024     0.0046034038 
    409000   0.041586474   -0.55979345     0.030309541   -0.46714444     0.0069011742 
    410000   0.042535338   -0.56158591     0.029603094   -0.46822097     0.010023673  
    411000   0.041531748   -0.56169928     0.030036448   -0.4694054      0.0056835871 
    412000   0.040925106   -0.56171671     0.028773972   -0.47159468     0.0065536409 
    413000   0.04088083    -0.56181531     0.027411907   -0.47312172     0.0010933962 
    414000   0.041988335   -0.56452166     0.029650271   -0.47192952     0.0021228852 
    415000   0.04274025    -0.56425123     0.030264804   -0.46991741     0.0054341852 
    416000   0.040344462   -0.5669726      0.028259261   -0.47823569     0.0046586898 
    417000   0.041045428   -0.56646004     0.030091786   -0.47483983     0.0090952332 
    418000   0.042412639   -0.56623721     0.028031436   -0.47462786     0.013991622  
    419000   0.042983709   -0.56773118     0.029863353   -0.47343387     0.018197881  
    420000   0.042891385   -0.57175536     0.030831443   -0.47662835     0.029877255  
    421000   0.044437517   -0.57266624     0.028413979   -0.47763899     0.0092516975 
    422000   0.044262512   -0.57458359     0.030332435   -0.47790022     0.017139587  
    423000   0.04438487    -0.5748437      0.029413949   -0.4788954      0.015499829  
    424000   0.043368083   -0.57629577     0.030050445   -0.48123517     0.014456432  
    425000   0.042897251   -0.57630311     0.030372048   -0.4816267      0.0059444932 
    426000   0.043251942   -0.57723224     0.030329181   -0.482067       0.0016779882 
    427000   0.043898032   -0.57820266     0.029520903   -0.48287719     0.0083923625 
    428000   0.046188535   -0.58074001     0.029120512   -0.4823814      0.0037734058 
    429000   0.042854802   -0.58243169     0.03164993    -0.48654103     0.006861577  
    430000   0.043735499   -0.58223845     0.031511025   -0.4851665      0.0019353417 
    431000   0.045442224   -0.58469325     0.031225433   -0.48534845     0.0093671756 
    432000   0.043464619   -0.58351093     0.031721091   -0.48663497    -0.0018665431 
    433000   0.044976455   -0.58540669     0.029740932   -0.4882446      0.0052579038 
    434000   0.0425343     -0.5859033      0.030390771   -0.49175224     0.0087055857 
    435000   0.042130216   -0.58581334     0.02865735    -0.49400143    -0.0010110115 
    436000   0.042921869   -0.58625404     0.029328079   -0.49258469     0.006289522  
    437000   0.043479915   -0.58596405     0.030759158   -0.4900271      0.0099385497 
    438000   0.044030806   -0.58698261     0.030160133   -0.49081888     0.0057711433 
    439000   0.04432568    -0.58901099     0.029807826   -0.49275754     0.0079513864 
    440000   0.045290053   -0.58890088     0.02970157    -0.49130806     0.0068984984 
    441000   0.044638546   -0.58976601     0.03170643    -0.49114496    -0.0021020066 
    442000   0.042896526   -0.59180197     0.031460992   -0.4960377      0.0028871868 
    443000   0.044319505   -0.59272668     0.03165715    -0.49463316     0.013176636  
    444000   0.043270232   -0.59274166     0.031401414   -0.49647677     0.013892614  
    445000   0.043648717   -0.59246578     0.029449373   -0.49758558     0.006510097  
    446000   0.044159521   -0.59161319     0.030806994   -0.49460965     0.012270955  
    447000   0.045617247   -0.59267446     0.030386625   -0.49390611     0.013092932  
    448000   0.044036931   -0.59165644     0.030082568   -0.49556109     0.016964284  
    449000   0.045912416   -0.59235321     0.032302037   -0.49122698     0.0097901044 
    450000   0.044600926   -0.59288691     0.032484656   -0.49354402     0.024178925  
    451000   0.046994919   -0.59364767     0.031154796   -0.49204597     0.0072155206 
    452000   0.046385085   -0.5961173      0.032205164   -0.4943794      0.017932771  
    453000   0.045550173   -0.59576678     0.032011354   -0.49547425     0.010527977  
    454000   0.04562558    -0.59704498     0.031947727   -0.49670304     0.0081439574 
    455000   0.046128377   -0.59728256     0.031427044   -0.49670759     0.021079421  
    456000   0.046088069   -0.59729713     0.030742341   -0.49746729     0.00087556838
    457000   0.044627721   -0.60180955     0.032690552   -0.50222061     0.0059732135 
    458000   0.048520411   -0.60090432     0.032460693   -0.49570996     0.0013139657 
    459000   0.045730297   -0.60074249     0.032064126   -0.50012717     0.008287028  
    460000   0.04587746    -0.60128192     0.032981262   -0.49952886     0.0084145478 
    461000   0.046429425   -0.60212864     0.033593689   -0.49893574     0.015456275  
    462000   0.047152063   -0.60287725     0.031877201   -0.50031759     0.010952621  
    463000   0.046265291   -0.60333167     0.033010059   -0.50096845     0.021071056  
    464000   0.047121805   -0.60405143     0.031184849   -0.50222948     0.022186458  
    465000   0.046286047   -0.60314501     0.03219048    -0.50157025     0.021493895  
    466000   0.047654697   -0.60397477     0.034092828   -0.49844601     0.008224976  
    467000   0.047293861   -0.60456108     0.035974521   -0.49769153     0.011824132  
    468000   0.047644599   -0.6025136      0.033593559   -0.49749925     0.010983577  
    469000   0.047049424   -0.60251406     0.035003916   -0.49698154     0.021851842  
    470000   0.047040406   -0.60271103     0.031919485   -0.50027646     0.011579301  
    471000   0.049186916   -0.60289718     0.032824664   -0.49633974     0.014820154  
    472000   0.048050553   -0.60532671     0.034474356   -0.49882302     0.012699337  
    473000   0.049346239   -0.6085498      0.034201787   -0.50037641     0.0081831066 
    474000   0.048467431   -0.60812821     0.032395213   -0.50307876     0.0058634955 
    475000   0.048314167   -0.60942549     0.032757925   -0.50424308     0.014610544  
    476000   0.047730783   -0.61147846     0.03319025    -0.50673823    -0.0034386737 
    477000   0.04923145    -0.61360108     0.035047222   -0.50475433     0.0070913115 
    478000   0.050109418   -0.61579874     0.033665005   -0.5070181      0.0028445516 
    479000   0.05043404    -0.61602111     0.034126294   -0.50629256     0.014357359  
    480000   0.049970442   -0.61828876     0.033192902   -0.51018856     0.012242335  
    481000   0.049542609   -0.618583       0.033784575   -0.51053246     0.0099453405 
    482000   0.048434035   -0.61941276     0.03353678    -0.5132718      0.012049756  
    483000   0.049656412   -0.62032724     0.035327156   -0.51056352     0.0032359717 
    484000   0.04875679    -0.62067772     0.033566292   -0.51402342     0.01010909   
    485000   0.050795104   -0.62369206     0.035108133   -0.51244043     0.0072444792 
    486000   0.049643533   -0.62478321     0.03657478    -0.51379117     0.0060207559 
    487000   0.050779524   -0.62863385     0.037067573   -0.51544614     0.016463466  
    488000   0.049208477   -0.62918104     0.035878892   -0.51953705     0.017397828  
    489000   0.04774245    -0.62914385     0.032567933   -0.52500844     0.011071482  
    490000   0.050098108   -0.62915974     0.033732176   -0.52032888     0.0084763994 
    491000   0.049468696   -0.62929994     0.033181162   -0.52196361     0.0029742623 
    492000   0.049501617   -0.62956626     0.035902585   -0.51945915     0.0030291612 
    493000   0.051608409   -0.62980283     0.03360439    -0.51883577     0.013005842  
    494000   0.049151086   -0.63013436     0.036544016   -0.51991128     0.0024914557 
    495000   0.048593344   -0.63035798     0.035354463   -0.52216052    -0.0047549114 
    496000   0.049861906   -0.63065165     0.03571807    -0.52018897     0.0064401984 
    497000   0.051158129   -0.63184        0.036034905   -0.51911741    -0.00056341183
    498000   0.050673695   -0.6314765      0.037859694   -0.51765531     0.010652124  
    499000   0.051148864   -0.63107303     0.035917484   -0.51848174     0.014880524  
    500000   0.050493806   -0.63094086     0.035369723   -0.5198793      0.0059610213 
Loop time of 124.671 on 8 procs for 500000 steps with 1550 atoms

Performance: 346512.588 tau/day, 4010.562 timesteps/s, 6.216 Matom-step/s
92.2% CPU use with 8 MPI tasks x 1 OpenMP threads

MPI task timing breakdown:
Section |  min time  |  avg time  |  max time  |%varavg| %total
---------------------------------------------------------------
Pair    | 14.043     | 15.221     | 16.952     |  26.5 | 12.21
Bond    | 4.9454     | 5.3241     | 5.7977     |  13.2 |  4.27
Neigh   | 0.044897   | 0.045292   | 0.045605   |   0.1 |  0.04
Comm    | 11.969     | 14.183     | 15.817     |  36.3 | 11.38
Output  | 0.39032    | 0.41046    | 0.43214    |   2.2 |  0.33
Modify  | 87.824     | 88.025     | 88.29      |   1.4 | 70.61
Other   |            | 1.463      |            |       |  1.17

Nlocal:         193.75 ave         213 max         179 min
Histogram: 3 0 0 1 0 2 0 0 1 1
Nghost:        609.375 ave         667 max         543 min
Histogram: 1 1 0 1 1 0 0 2 1 1
Neighs:              0 ave           0 max           0 min
Histogram: 8 0 0 0 0 0 0 0 0 0
FullNghs:       3155.5 ave        3884 max        2604 min
Histogram: 2 1 1 0 0 2 0 0 1 1

Total # of neighbors = 25244
Ave neighs/atom = 16.286452
Ave special neighs/atom = 2.1612903
Neighbor list builds = 177
Dangerous builds = 0

unfix ThermoLng

# Now we let the system to create the polymeric network
fix ThermoLng all langevin ${temp} ${temp} ${damp} ${seed3} tally yes zero no # Brownian Dynamics: langevin + nve
fix ThermoLng all langevin 0.05 ${temp} ${damp} ${seed3} tally yes zero no 
fix ThermoLng all langevin 0.05 0.05 ${damp} ${seed3} tally yes zero no 
fix ThermoLng all langevin 0.05 0.05 1 ${seed3} tally yes zero no 
fix ThermoLng all langevin 0.05 0.05 1 2010 tally yes zero no 
run ${steps}
run 5000000
WARNING: Using a manybody potential with bonds/angles/dihedrals and special_bond exclusions (src/pair.cpp:250)
Hybrid pair style last /omp style table/omp
Last active /omp style is angle_style harmonic/omp
Per MPI rank memory allocation (min/avg/max) = 24.03 | 24.04 | 24.04 Mbytes
   Step          Temp          E_pair         E_mol          TotEng         Press     
    500000   0.050493806   -0.63094086     0.035369723   -0.5198793      0.00068438568
    501000   0.04864942    -0.63160077     0.036891284   -0.52178243     0.004706289  
    502000   0.050682692   -0.63295552     0.033504742   -0.52347579     0.0082105923 
    503000   0.050563067   -0.63155223     0.036165861   -0.5195907      0.012553669  
    504000   0.052148649   -0.63328066     0.036337754   -0.5187704      0.015186073  
    505000   0.051224359   -0.63420685     0.035696952   -0.52172293     0.015649831  
    506000   0.05218955    -0.63479923     0.036649284   -0.51991613     0.011346181  
    507000   0.050468563   -0.63480915     0.034775307   -0.52437984     0.01373323   
    508000   0.050384274   -0.63525578     0.034077486   -0.52565064     0.0053616976 
    509000   0.050382188   -0.637326       0.035875662   -0.52592581     0.0043070688 
    510000   0.049092773   -0.63878948     0.032838126   -0.53235971    -0.0049576895 
    511000   0.049558372   -0.64081321     0.035477803   -0.53104581     6.0487629e-05
    512000   0.048652899   -0.64239963     0.035751992   -0.53371537     0.0008516134 
    513000   0.050664251   -0.64272615     0.034831652   -0.53194715     0.0084601169 
    514000   0.047880751   -0.64443428     0.034664569   -0.53799492     0.0086819415 
    515000   0.050213415   -0.64497447     0.03456655    -0.53513639     0.0067980116 
    516000   0.049778394   -0.6459202      0.034385473   -0.53691531     0.0011960105 
    517000   0.050702346   -0.64614545     0.036190825   -0.53395017     0.0086108053 
    518000   0.053081051   -0.64690738     0.037548331   -0.52978884     0.018096313  
    519000   0.051471289   -0.64767107     0.036345367   -0.53416858     0.013073688  
    520000   0.051638172   -0.64776332     0.037065801   -0.53329023     0.017197492  
    521000   0.050149405   -0.6466983      0.036598935   -0.53492379     0.015774958  
    522000   0.049822376   -0.64836027     0.035839182   -0.53783574     0.018961895  
    523000   0.052168161   -0.64970658     0.033779518   -0.53772531     0.019570882  
    524000   0.050109089   -0.64826769     0.034878235   -0.53827432     0.016559977  
    525000   0.051052656   -0.64889336     0.035780119   -0.53658367     0.017629654  
    526000   0.050903279   -0.65008359     0.034556483   -0.53922145     0.014061219  
    527000   0.051046749   -0.65119746     0.036947564   -0.53772917     0.02529272   
    528000   0.050732927   -0.65006638     0.037051637   -0.53696445     0.026030211  
    529000   0.051749237   -0.65073418     0.034342992   -0.53881742     0.021407991  
    530000   0.052030809   -0.65227911     0.035827664   -0.53845558     0.030728317  
    531000   0.050508333   -0.65192765     0.036156824   -0.5400572      0.020514982  
    532000   0.052545392   -0.65239829     0.037102059   -0.53652899     0.010643636  
    533000   0.050143824   -0.65231316     0.034239599   -0.54290635     0.0033087204 
    534000   0.050841608   -0.65307044     0.036229257   -0.54062798     0.016464688  
    535000   0.050806758   -0.65333194     0.036607863   -0.54056311     0.020000214  
    536000   0.050767644   -0.65339914     0.037101587   -0.54019521     0.0085998454 
    537000   0.050571639   -0.65564325     0.037905207   -0.54192952    -0.004122674  
    538000   0.051632411   -0.65562765     0.036992766   -0.54123623    -0.0025497528 
    539000   0.051068481   -0.65750278     0.035813488   -0.54513599     0.005303126  
    540000   0.05074415    -0.65954806     0.035687286   -0.54779365     0.0070752297 
    541000   0.048673839   -0.66207348     0.03668447    -0.55242536     0.016190769  
    542000   0.052249321   -0.66178487     0.035089136   -0.54837232     0.011434478  
    543000   0.051633236   -0.66158366     0.03584161    -0.54834216     0.025482837  
    544000   0.050054594   -0.66202677     0.035739259   -0.55125406     0.0068904035 
    545000   0.052129824   -0.66363096     0.036561325   -0.54892535     0.013424834  
    546000   0.050210544   -0.66280052     0.036847185   -0.55068611     0.0076968547 
    547000   0.050502042   -0.66327867     0.037065038   -0.55050944     0.019249574  
    548000   0.051808624   -0.66379049     0.034882554   -0.55124514     0.0015307048 
    549000   0.05002356    -0.66370858     0.033738003   -0.55498365     0.0062199623 
    550000   0.051353949   -0.66433263     0.034279669   -0.55307173     0.0036492709 
    551000   0.050081612   -0.66685211     0.036457887   -0.55532027     0.020792174  
    552000   0.04999452    -0.66615964     0.035630283   -0.55558596     0.003874863  
    553000   0.052012109   -0.66693695     0.035170704   -0.55379842     0.02023229   
    554000   0.051968761   -0.6675807      0.036229005   -0.55344884     0.014211589  
    555000   0.050566746   -0.66821028     0.035126236   -0.55728286     0.024294082  
    556000   0.051366857   -0.66853        0.035839256   -0.55569017     0.014477199  
    557000   0.050046      -0.66814439     0.033457216   -0.5596666      0.011674665  
    558000   0.050971774   -0.66889823     0.036725935   -0.55576397     0.015985825  
    559000   0.05191797    -0.66918843     0.036677928   -0.55468379     0.016635076  
    560000   0.050962537   -0.67035078     0.036478002   -0.55747829     0.015719411  
    561000   0.049807207   -0.66969225     0.035640641   -0.55938899     0.0041268772 
    562000   0.051933697   -0.66975899     0.034133657   -0.55777505     0.011197974  
    563000   0.050647143   -0.66889074     0.033788468   -0.55918057     0.011478875  
    564000   0.049279593   -0.66942698     0.033498227   -0.56205706    -0.00059347803
    565000   0.050852699   -0.6694734      0.034861089   -0.55838247     0.0017859696 
    566000   0.050130746   -0.67152479     0.036014702   -0.56036249     0.0040552118 
    567000   0.050679736   -0.67114385     0.03606024    -0.55911305     0.01504694   
    568000   0.05218409    -0.67294802     0.035198744   -0.55952364     0.0063144325 
    569000   0.052314119   -0.67272407     0.035306897   -0.55899662     0.011143699  
    570000   0.051071857   -0.67394599     0.035926707   -0.56146092    -0.0051014012 
    571000   0.050004675   -0.67548092     0.036387495   -0.5641348      0.011204453  
    572000   0.050241987   -0.67518752     0.034705813   -0.56516735     0.0073164815 
    573000   0.051316705   -0.67497554     0.034525054   -0.56352509     0.003190126  
    574000   0.053683571   -0.67578695     0.035584862   -0.55972869     0.0062667672 
    575000   0.049303079   -0.67423854     0.036709263   -0.56362237     0.019937548  
    576000   0.049782924   -0.67527419     0.035672798   -0.56497518     0.0060057793 
    577000   0.051827485   -0.67439172     0.035318845   -0.5613818      0.014184032  
    578000   0.052449934   -0.67458678     0.036130722   -0.55983191     0.020877411  
    579000   0.050620712   -0.67509798     0.034693046   -0.56452286     0.0097174881 
    580000   0.050342092   -0.67580723     0.035230544   -0.56511227     0.010146277  
    581000   0.048703484   -0.67535252     0.034875744   -0.56746868     0.015114783  
    582000   0.050764106   -0.67689213     0.034991763   -0.56580334     0.0080490634 
    583000   0.049250648   -0.67588764     0.035001264   -0.56705806     0.0032121605 
    584000   0.050094938   -0.67689548     0.034713371   -0.56708818     0.011884537  
    585000   0.050157454   -0.67596939     0.0356454     -0.56513635     0.0079264784 
    586000   0.049683601   -0.67744454     0.035600175   -0.56736705     0.021728399  
    587000   0.048960547   -0.67667263     0.034344085   -0.56893511     0.020575452  
    588000   0.050483744   -0.67768071     0.035948502   -0.56605545     0.019036318  
    589000   0.048411688   -0.67720988     0.036903163   -0.56773604     0.010407557  
    590000   0.050488735   -0.67991735     0.035870502   -0.56836261     0.0025641835 
    591000   0.050903231   -0.68280619     0.036711994   -0.56978861     0.013183834  
    592000   0.050959254   -0.68274874     0.036804803   -0.56955437     0.013451312  
    593000   0.051626415   -0.6836592      0.036104273   -0.57016527     0.012055323  
    594000   0.0516623     -0.68463496     0.036929537   -0.57026197     0.019885423  
    595000   0.05047449    -0.6827897      0.034705766   -0.57242105     0.018056278  
    596000   0.050353121   -0.68322043     0.036402407   -0.57133707     0.018358724  
    597000   0.052088413   -0.68468633     0.033669836   -0.57293428     0.015494707  
    598000   0.051027861   -0.68425036     0.035106355   -0.5726516      0.013066265  
    599000   0.051178857   -0.68570005     0.03688711    -0.57209419     0.028679355  
    600000   0.054366513   -0.6871403      0.036520936   -0.56912221     0.011979695  
    601000   0.05212706    -0.68841787     0.038855631   -0.5714221      0.010842797  
    602000   0.051758952   -0.6880638      0.03503854    -0.57543692     0.013599336  
    603000   0.049797161   -0.68853155     0.034960933   -0.57892307     0.015016441  
    604000   0.049500861   -0.68976621     0.035364205   -0.58019861     0.0095439033 
    605000   0.051057904   -0.69039647     0.034828428   -0.5790306      0.0020117127 
    606000   0.050902992   -0.68876249     0.036426722   -0.57603054     0.017236748  
    607000   0.052830206   -0.68950831     0.034820807   -0.57549332     0.010431093  
    608000   0.051547086   -0.68872565     0.036220474   -0.57523443     0.011240279  
    609000   0.049260048   -0.68934412     0.035674241   -0.57982748     0.019094232  
    610000   0.050922305   -0.68939324     0.033327863   -0.5797312      0.016738603  
    611000   0.050833702   -0.69043822     0.035486036   -0.57875082     0.016333721  
    612000   0.050626827   -0.69074509     0.036819202   -0.57803464     0.016439605  
    613000   0.051040643   -0.69089136     0.035239505   -0.57914028     0.020270666  
    614000   0.050212104   -0.69128072     0.035303167   -0.58070799     0.022539056  
    615000   0.051487437   -0.69203071     0.036280402   -0.57856898     0.0091207173 
    616000   0.051579596   -0.6937861      0.037768771   -0.57869785     0.01868168   
    617000   0.051371288   -0.69344366     0.035679744   -0.5807567      0.017428695  
    618000   0.049554507   -0.69287569     0.036223661   -0.58236822     0.024410745  
    619000   0.049418953   -0.6933938      0.036160629   -0.58315257     0.016269686  
    620000   0.050256167   -0.69284977     0.034679458   -0.5828347     -0.00059905808
    621000   0.050281977   -0.69269961     0.0358818     -0.58144351     0.0063438976 
    622000   0.051371856   -0.69258726     0.036274614   -0.57930458    -0.00071718852
    623000   0.050971971   -0.6936593      0.036718281   -0.58053239     0.014730181  
    624000   0.050783824   -0.69426295     0.034167889   -0.58396847     0.0060763855 
    625000   0.050458095   -0.69308275     0.035064123   -0.58238032    -0.00073992031
    626000   0.050017503   -0.69399351     0.037603079   -0.58141258     0.0014173033 
    627000   0.051524102   -0.69360921     0.035539501   -0.58083342     0.0056864913 
    628000   0.048887757   -0.69377097     0.036687663   -0.58379899     0.0029391897 
    629000   0.049152091   -0.69363138     0.035289413   -0.5846614      0.002701549  
    630000   0.050423507   -0.6938401      0.036283837   -0.5819698     -0.0062008014 
    631000   0.050975877   -0.69320254     0.03638886    -0.5803992      0.0076792507 
    632000   0.049947946   -0.6930051      0.035733188   -0.58239833    -0.0085328314 
    633000   0.050508845   -0.69340864     0.035132682   -0.58256157    -0.00026990065
    634000   0.052284932   -0.69270632     0.036726999   -0.57760252     0.0074488096 
    635000   0.052366412   -0.69373586     0.035672767   -0.57956416     0.0011794904 
    636000   0.049382481   -0.69332285     0.035459386   -0.58383753    -0.0030747773 
    637000   0.051048748   -0.69205725     0.035682082   -0.57985144     0.016643336  
    638000   0.051808606   -0.69434422     0.03447081    -0.58221064     0.0042252356 
    639000   0.049814256   -0.69475478     0.036621063   -0.58346054     0.0042282394 
    640000   0.050257697   -0.69453118     0.035685239   -0.58350803     0.018032155  
    641000   0.049380388   -0.69395361     0.037214936   -0.58271588     0.0061457576 
    642000   0.052108124   -0.6956417      0.033849143   -0.5836808     -0.0010606697 
    643000   0.05142005    -0.69595067     0.034666468   -0.58420389     0.019737812  
    644000   0.050795018   -0.69695568     0.034678585   -0.58613372     0.013708626  
    645000   0.050308798   -0.69622266     0.036010174   -0.58479797     0.020911541  
    646000   0.049787056   -0.69617191     0.035130227   -0.58640928     0.018423322  
    647000   0.049957201   -0.69623893     0.036050238   -0.58530124     0.0096555821 
    648000   0.050078561   -0.69598378     0.035152599   -0.5857618      0.012436855  
    649000   0.049496274   -0.69660711     0.036274878   -0.58613572     0.010229316  
    650000   0.050493533   -0.69485655     0.035139353   -0.58402576     0.013813278  
    651000   0.049537229   -0.69644307     0.035401691   -0.58678347     0.013236679  
    652000   0.052164351   -0.69715734     0.036154704   -0.58280659     0.0040821488 
    653000   0.051971073   -0.69688003     0.037296911   -0.5816768      0.0015520693 
    654000   0.050590457   -0.69712236     0.037944962   -0.58334067     0.0098187773 
    655000   0.050473784   -0.69938795     0.036894324   -0.58683179     0.014735434  
    656000   0.050541011   -0.69969336     0.035805636   -0.58812512     0.013194709  
    657000   0.049948001   -0.70011432     0.035038395   -0.59020226     0.0094512383 
    658000   0.051283279   -0.6984663      0.034279639   -0.58731137    -0.0070594528 
    659000   0.050933644   -0.69835028     0.03377972    -0.58821938     0.0045480394 
    660000   0.050521682   -0.69906443     0.033896413   -0.58943438     0.013700708  
    661000   0.050851918   -0.69895704     0.036403969   -0.58632441     0.012286856  
    662000   0.050101057   -0.69963913     0.039332134   -0.58520389    -0.0018311745 
    663000   0.050249227   -0.70035089     0.034524998   -0.59050068     0.0048844481 
    664000   0.050431334   -0.70082544     0.033499184   -0.59172806     0.0028712994 
    665000   0.047946338   -0.69928208     0.034621737   -0.59278724    -0.0092928651 
    666000   0.049266048   -0.6992544      0.034846363   -0.59055665    -0.00091027207
    667000   0.050366262   -0.70074276     0.034698705   -0.59054341     0.012578067  
    668000   0.050032674   -0.69924816     0.034872692   -0.58937487     0.012678692  
    669000   0.05139364    -0.69833794     0.036216555   -0.58508066     0.0077731512 
    670000   0.050965355   -0.6999859      0.035516921   -0.58807027     0.0093455898 
    671000   0.050520871   -0.69983699     0.036110257   -0.58799432     0.0048270686 
    672000   0.05185105    -0.69855983     0.034429229   -0.58640421     0.018788586  
    673000   0.05050569    -0.70039613     0.035194651   -0.58949182     0.018176775  
    674000   0.049406775   -0.69946726     0.035386248   -0.59001866     0.013340904  
    675000   0.051003277   -0.69963686     0.03454602    -0.58863528     0.001766092  
    676000   0.050629516   -0.69958781     0.034854168   -0.58883837     0.010954807  
    677000   0.051740812   -0.70142946     0.035347293   -0.58852102     0.0019160197 
    678000   0.05133355    -0.70147464     0.034461494   -0.5900625      0.012606259  
    679000   0.052237065   -0.70215529     0.035965578   -0.58788467    -0.0034040513 
    680000   0.051930961   -0.70107146     0.036368824   -0.58685645     0.00019157561
    681000   0.050949613   -0.70099709     0.035380515   -0.58924146    -0.00057847343
    682000   0.050014253   -0.70095332     0.035823082   -0.59015726     0.0094585873 
    683000   0.051489496   -0.70189698     0.034583221   -0.59012935     0.019529338  
    684000   0.051241112   -0.70265619     0.036206161   -0.58963795     0.008534619  
    685000   0.051875122   -0.70109213     0.035401733   -0.58792792     0.020391626  
    686000   0.05032166    -0.70131236     0.036234385   -0.58964418     0.002309693  
    687000   0.051038466   -0.70249312     0.035842054   -0.59014276     0.012228317  
    688000   0.051051775   -0.7023607      0.037474737   -0.58835771     0.00093567913
    689000   0.050780016   -0.70423131     0.036626832   -0.59148359    -0.0031547193 
    690000   0.050246291   -0.70309902     0.034522318   -0.59325589     0.0079161037 
    691000   0.049091144   -0.70363003     0.036124896   -0.59391593     0.010005662  
    692000   0.050611914   -0.70465001     0.034706647   -0.59407447     0.011379634  
    693000   0.049273071   -0.70367394     0.035364995   -0.59444702     0.00084917489
    694000   0.049309215   -0.70464676     0.03561237    -0.59511828     0.01061316   
    695000   0.04970763    -0.7046368      0.035003052   -0.5951204      0.0096724642 
    696000   0.052775912   -0.70663989     0.034553007   -0.59297409     0.010157788  
    697000   0.050629404   -0.70776336     0.036531859   -0.59533639     0.018942994  
    698000   0.051039709   -0.7068733      0.035497532   -0.59486559     0.025925454  
    699000   0.049517214   -0.706866       0.035572796   -0.5970653     -0.0039820041 
    700000   0.050495406   -0.70655543     0.034024548   -0.59683664     0.011774794  
    701000   0.051225443   -0.70717379     0.034884104   -0.59550109     0.0048776136 
    702000   0.048957088   -0.70840272     0.035692399   -0.59932206     0.00016979652
    703000   0.05130234    -0.709822       0.035452361   -0.59746578     0.0037661985 
    704000   0.050169687   -0.70908044     0.036395771   -0.59747869     0.0012067368 
    705000   0.051625843   -0.71139732     0.034890475   -0.59911804     0.015046603  
    706000   0.048735936   -0.71217985     0.036383146   -0.60273996     0.018690222  
    707000   0.049271963   -0.71286086     0.034938378   -0.60406222     0.011771805  
    708000   0.050351128   -0.71308009     0.034276987   -0.60332514     0.019217736  
    709000   0.050914594   -0.71219604     0.032433116   -0.60344031     0.032390421  
    710000   0.049422232   -0.71232446     0.033622329   -0.60461661     0.01536639   
    711000   0.050483333   -0.71594098     0.034835707   -0.60542913    -0.013115482  
    712000   0.050423634   -0.71649042     0.034809813   -0.60609395    -0.0023377029 
    713000   0.049731543   -0.71584618     0.035962502   -0.60533449     0.011750567  
    714000   0.049188604   -0.7158697      0.034285683   -0.60784871     0.012671031  
    715000   0.052269126   -0.71564023     0.034735919   -0.6025512     -0.0014996028 
    716000   0.050757713   -0.71632256     0.035417251   -0.60481786    -0.0029164095 
    717000   0.050400388   -0.71610207     0.033806967   -0.6067433     -0.0025226799 
    718000   0.049731541   -0.71574134     0.03453248    -0.60665967     0.011308028  
    719000   0.049821565   -0.71442859     0.035505507   -0.60423895     0.014873313  
    720000   0.051148437   -0.7159245      0.033360909   -0.60589043     0.0073859917 
    721000   0.049996604   -0.71590834     0.035633619   -0.6053282     -0.0041137672 
    722000   0.051218715   -0.71552817     0.034277023   -0.60447264     0.012644944  
    723000   0.050423921   -0.71561625     0.033919994   -0.60610918     0.016554237  
    724000   0.049635771   -0.7169176      0.035499575   -0.6070124      0.030411487  
    725000   0.049773097   -0.71579296     0.035395296   -0.60578619     0.020591397  
    726000   0.050830147   -0.71472138     0.035170124   -0.60335523     0.012873409  
    727000   0.050728833   -0.7162281      0.035086888   -0.60509705     0.026766099  
    728000   0.051445305   -0.71663542     0.036782227   -0.60273502     0.018239222  
    729000   0.051121011   -0.71682811     0.036252089   -0.60394398     0.001356527  
    730000   0.051104234   -0.71670425     0.034507474   -0.60558988     0.00016028479
    731000   0.050578308   -0.71837126     0.035965224   -0.60658752     0.014447213  
    732000   0.048829322   -0.71777217     0.035706588   -0.60886885     0.0063023321 
    733000   0.050208288   -0.71810768     0.035271216   -0.60757262     0.023124387  
    734000   0.050784175   -0.71912153     0.036941033   -0.60605338     0.020095917  
    735000   0.049471389   -0.71988722     0.034842613   -0.6108854      0.01337069   
    736000   0.048295463   -0.72006654     0.035204389   -0.6124657      0.020696785  
    737000   0.049098965   -0.72093238     0.03562362    -0.61170783     0.016153284  
    738000   0.051631909   -0.72445049     0.034974557   -0.61207803     0.020674081  
    739000   0.052869303   -0.72316091     0.036292136   -0.60761599     0.018762842  
    740000   0.049770164   -0.72368532     0.035565054   -0.61351319     0.019379901  
    741000   0.049670719   -0.72453842     0.035510279   -0.61457013     0.024912027  
    742000   0.047721628   -0.72358798     0.034470789   -0.61758093     0.018020603  
    743000   0.049860363   -0.72440895     0.036014349   -0.6136523      0.013940555  
[...]
   5293000   0.051606771   -0.82203016     0.047709141   -0.6969608      0.012778087  
   5294000   0.052137252   -0.81851344     0.047259558   -0.69309846     0.012886846  
   5295000   0.052733378   -0.82173655     0.049246421   -0.6934411      0.0098834408 
   5296000   0.053184135   -0.82060914     0.051090549   -0.68979385    -0.0060425501 
   5297000   0.052905846   -0.82046577     0.047646349   -0.69351185     0.026710502  
   5298000   0.049876616   -0.82109463     0.046332244   -0.69999573     0.032882441  
   5299000   0.050268115   -0.81981714     0.045986624   -0.69847699     0.018258719  
   5300000   0.051293648   -0.81956864     0.048792071   -0.69388573    -0.0098186633 
   5301000   0.050153798   -0.82060809     0.048048489   -0.69737744     0.049999498  
   5302000   0.051420763   -0.82131933     0.047161825   -0.69707613     0.032782055  
   5303000   0.051599692   -0.820212       0.049476958   -0.69338544     0.020874116  
   5304000   0.051240973   -0.82121364     0.048816702   -0.69558507     0.00034756134
   5305000   0.051364692   -0.82145187     0.047590037   -0.6968645      0.01485657   
   5306000   0.050133356   -0.81984848     0.048439797   -0.69625716    -0.0042693785 
   5307000   0.051116923   -0.8218359      0.047314763   -0.69789522     0.0094635239 
   5308000   0.050212327   -0.82189859     0.051185066   -0.69544362     0.033537586  
   5309000   0.050543658   -0.82010121     0.049043058   -0.69529158     0.01821406   
   5310000   0.053979045   -0.81956346     0.049081201   -0.68956593     0.013690657  
   5311000   0.052031934   -0.82017259     0.048943379   -0.69323166     0.0008751085 
   5312000   0.054447587   -0.81986324     0.047627198   -0.69061735    -0.0076231515 
   5313000   0.051654158   -0.82096105     0.048558952   -0.69497085     0.0023649548 
   5314000   0.052844304   -0.81909574     0.047377166   -0.69250326     0.026910011  
   5315000   0.052661036   -0.81905773     0.047996875   -0.69212026     0.02595414   
   5316000   0.050827065   -0.8213846      0.048286569   -0.69690663     0.025326003  
   5317000   0.051971453   -0.82032641     0.04859298    -0.69382654     0.025513052  
   5318000   0.051289501   -0.81961907     0.048288325   -0.69444613     0.013364495  
   5319000   0.05222014    -0.82037227     0.048103943   -0.69398865     0.0048958769 
   5320000   0.051245212   -0.82224648     0.04766165    -0.69776661     0.011038957  
   5321000   0.050924054   -0.8207461      0.047359249   -0.69705006     0.024687768  
   5322000   0.052824573   -0.81866528     0.047550362   -0.69192918     0.024530773  
   5323000   0.050814583   -0.82035478     0.050614872   -0.69356721     0.02383141   
   5324000   0.05156244    -0.82091079     0.051400333   -0.6922167     -0.0030971761 
   5325000   0.051370913   -0.82138631     0.050111646   -0.69426801     0.0096215732 
   5326000   0.051253953   -0.81983659     0.049315795   -0.69368947     0.024536057  
   5327000   0.052655909   -0.81983986     0.050050301   -0.69085666     0.034196484  
   5328000   0.051687238   -0.81950638     0.048453314   -0.69357223     0.06299523   
   5329000   0.051546721   -0.81954972     0.047405961   -0.69487356     0.018647158  
   5330000   0.0521977     -0.81865346     0.047977657   -0.69242976     0.040618622  
   5331000   0.050968192   -0.81948797     0.049163643   -0.69392136     0.033255836  
   5332000   0.054036518   -0.82096927     0.048236632   -0.69173016     0.048694545  
   5333000   0.053023517   -0.82008953     0.050798651   -0.68980691     0.027539097  
   5334000   0.051499426   -0.82067785     0.049778379   -0.69370017     0.01729755   
   5335000   0.051704109   -0.82115049     0.05094896    -0.6926954      0.00029845793
   5336000   0.052152541   -0.81876208     0.049178194   -0.69140554     0.037874488  
   5337000   0.052362037   -0.82023111     0.048160999   -0.69357773     0.032695832  
   5338000   0.051104963   -0.82147157     0.050430391   -0.69443319     0.026506762  
   5339000   0.05074021    -0.81960563     0.048536505   -0.69500791     0.033234797  
   5340000   0.052015724   -0.82082526     0.048154214   -0.6946978      0.033292001  
   5341000   0.050787521   -0.81898135     0.050118777   -0.69273044     0.015374884  
   5342000   0.051017289   -0.81981375     0.048892788   -0.6944444      0.032693095  
   5343000   0.050163328   -0.82100246     0.049686713   -0.6961193      0.0051056453 
   5344000   0.051894364   -0.81906478     0.047385748   -0.6938877      0.030986111  
   5345000   0.053067163   -0.8184319      0.046872721   -0.69200979     0.044522951  
   5346000   0.050982267   -0.81729283     0.046361863   -0.69450691     0.029904769  
   5347000   0.051390246   -0.82121301     0.050262553   -0.69391482     0.0044759135 
   5348000   0.051426586   -0.8199693      0.048009033   -0.69487015    -0.0085283099 
   5349000   0.051882105   -0.82042169     0.050126175   -0.69252257     0.0077265225 
   5350000   0.051646631   -0.81788096     0.050836693   -0.6896243      0.011644338  
   5351000   0.052946373   -0.82199823     0.052469884   -0.69016003     0.013032256  
   5352000   0.053438197   -0.82050736     0.048603176   -0.69179861     0.038934686  
   5353000   0.05347947    -0.82028986     0.048432899   -0.69168951     0.033556458  
   5354000   0.052219067   -0.82148777     0.049636189   -0.69357351     0.023374928  
   5355000   0.051311367   -0.82112265     0.048586942   -0.69561831     0.026042944  
   5356000   0.049739114   -0.81952279     0.049780415   -0.69518183     0.022286074  
   5357000   0.0505153     -0.82074206     0.049697813   -0.69532018     0.016091617  
   5358000   0.053119792   -0.82042238     0.049049737   -0.69174436     0.017039939  
   5359000   0.050805704   -0.81914418     0.050427719   -0.69255707    -0.0017827818 
   5360000   0.0507885     -0.81898663     0.049475946   -0.69337709     0.026441423  
   5361000   0.051071572   -0.8205019      0.049775246   -0.69416872     0.005636376  
   5362000   0.051231787   -0.81865203     0.05049372    -0.69136021     0.045797141  
   5363000   0.050377462   -0.81952362     0.049607777   -0.69439841     0.02034021   
   5364000   0.051424587   -0.81982854     0.048530418   -0.69421101     0.010435538  
   5365000   0.052773591   -0.81878475     0.04851685    -0.69115858     0.021267314  
   5366000   0.05301442    -0.82019378     0.049711984   -0.69101147     0.013863281  
   5367000   0.05105612    -0.82110469     0.051528068   -0.69304185    -0.0038226169 
   5368000   0.053739903   -0.8202398      0.050005032   -0.68967692     0.0030075051 
   5369000   0.051805668   -0.81827505     0.052170762   -0.68844592    -0.0052028455 
   5370000   0.051495587   -0.81947998     0.048403837   -0.6938826      0.0018367589 
   5371000   0.052575926   -0.81960442     0.047713191   -0.69307822     0.013822218  
   5372000   0.053641009   -0.81966683     0.049454386   -0.68980284     0.0020853873 
   5373000   0.049647595   -0.81945545     0.04962924    -0.69540286     0.050496177  
   5374000   0.052357543   -0.8208141      0.050002294   -0.69232616     0.02369795   
   5375000   0.051921685   -0.8199735      0.051966359   -0.69017487     0.0018109253 
   5376000   0.052431837   -0.81899145     0.051878793   -0.68851564     0.017257469  
   5377000   0.05169974    -0.81939681     0.049362808   -0.69253443     0.0080677855 
   5378000   0.050429349   -0.82134713     0.049551244   -0.69620067     0.016715271  
   5379000   0.053083162   -0.81904741     0.048995578   -0.69047846     0.020495289  
   5380000   0.053300191   -0.82051228     0.050161258   -0.69045232     0.024849021  
   5381000   0.051444901   -0.81887013     0.049162207   -0.69259036    -0.0011958864 
   5382000   0.050224458   -0.81976378     0.050306816   -0.69416889     0.023607391  
   5383000   0.052040164   -0.82106604     0.047453283   -0.69560287     0.018667545  
   5384000   0.051513539   -0.82123285     0.048884837   -0.69512756     0.031371745  
   5385000   0.05015347    -0.81914015     0.049425276   -0.69453321     0.034879897  
   5386000   0.05166832    -0.81882584     0.048888342   -0.69248502    -0.014102376  
   5387000   0.052670954   -0.81817933     0.050020055   -0.68920381     0.015908858  
   5388000   0.054598595   -0.81955586     0.050159268   -0.68755154     0.0140702    
   5389000   0.052479605   -0.81924195     0.049942368   -0.69063096     0.0086041787 
   5390000   0.052178712   -0.81913938     0.049484863   -0.69143694    -0.0062490758 
   5391000   0.051160539   -0.82005027     0.05180541    -0.69155356     0.016896428  
   5392000   0.052421219   -0.81954167     0.049136204   -0.69182437     0.014968616  
   5393000   0.05128849    -0.81863809     0.048122499   -0.69363249     0.01064518   
   5394000   0.052021585   -0.81800099     0.047494077   -0.69252488     0.013231611  
   5395000   0.051428122   -0.82012518     0.048214627   -0.69481814     0.015019009  
   5396000   0.052618141   -0.8204747      0.048380727   -0.69321769     0.01281656   
   5397000   0.050546547   -0.81993678     0.049897426   -0.69426845     0.018167869  
   5398000   0.052775062   -0.82028798     0.048570069   -0.69260639     0.016195973  
   5399000   0.052110415   -0.82013758     0.048960633   -0.69306175     0.017529554  
   5400000   0.051213956   -0.81945746     0.049742241   -0.69294384     0.0041904927 
   5401000   0.051376737   -0.82014669     0.046416325   -0.69671498     0.0019687681 
   5402000   0.049457087   -0.82042658     0.049751605   -0.69653721     0.00139588   
   5403000   0.05055804    -0.8190506      0.050867285   -0.69239518     0.019353001  
   5404000   0.052269986   -0.82026285     0.048321166   -0.69358728     0.015887396  
   5405000   0.052132351   -0.82052343     0.049832601   -0.69254275     0.010414342  
   5406000   0.05323925    -0.8195037      0.050103287   -0.68959306    -0.0065421879 
   5407000   0.052472067   -0.82044862     0.051577055   -0.69021424     0.0093425153 
   5408000   0.052917181   -0.8214327      0.05009746    -0.69201068     0.0091266021 
   5409000   0.051721642   -0.81922365     0.049053419   -0.69263783     0.0066651674 
   5410000   0.051734405   -0.82103842     0.051065676   -0.6924212      0.010444471  
   5411000   0.050584735   -0.82150138     0.052166286   -0.69350694    -0.011213139  
   5412000   0.051687042   -0.82291599     0.050042619   -0.69539282    -0.0078401184 
   5413000   0.051839053   -0.81874834     0.049538423   -0.69150151     0.014707615  
   5414000   0.050547885   -0.8203039      0.048213464   -0.69631753     0.0097484118 
   5415000   0.051929476   -0.82120409     0.049740191   -0.69361994     0.0014659379 
   5416000   0.052530721   -0.82000948     0.050903603   -0.69036063    -0.0069003738 
   5417000   0.052785353   -0.81985719     0.050525816   -0.69020442    -0.0095553382 
   5418000   0.050714365   -0.81924119     0.049006831   -0.69421189     0.019595477  
   5419000   0.050669552   -0.81875967     0.048162844   -0.69464153     0.0011183637 
   5420000   0.052091998   -0.81956366     0.048217114   -0.69325896     0.024377633  
   5421000   0.051597992   -0.82093513     0.047365135   -0.69622294     0.0058642464 
   5422000   0.051762015   -0.81893122     0.04865815    -0.69268014     0.019803214  
   5423000   0.051703963   -0.82006255     0.048555499   -0.69400114     0.010715076  
   5424000   0.051962543   -0.8202399      0.049316423   -0.69302995     0.022814729  
   5425000   0.04977671    -0.82010779     0.049490346   -0.69600055     0.0051844486 
   5426000   0.049680544   -0.81947132     0.050264139   -0.69473444    -0.00036197602
   5427000   0.051092586   -0.82088464     0.048506805   -0.6957884      0.006102416  
   5428000   0.050044976   -0.82131124     0.048082868   -0.69820934    -0.011956002  
   5429000   0.050934948   -0.82072264     0.04874543    -0.69562408    -0.0069357953 
   5430000   0.051276292   -0.82131711     0.048389624   -0.69606267    -0.0022469404 
   5431000   0.049959492   -0.82008074     0.049387608   -0.69580225     0.0072187394 
   5432000   0.051178103   -0.82052043     0.048406383   -0.69539642     0.0073205406 
   5433000   0.051461298   -0.82105629     0.048662512   -0.69525163    -0.012067096  
   5434000   0.051819353   -0.82126536     0.048796077   -0.6947904     -0.012924858  
   5435000   0.050598548   -0.82059508     0.050200599   -0.69454563     0.0043543433 
   5436000   0.050994339   -0.8202644      0.050451791   -0.69337045     0.01917898   
   5437000   0.051514501   -0.82186443     0.048231769   -0.69641077     0.017091105  
   5438000   0.051084224   -0.8213598      0.049007094   -0.69577581     0.010029538  
   5439000   0.049764783   -0.81983741     0.050139697   -0.6950987      0.013677651  
   5440000   0.05073111    -0.82193779     0.050968207   -0.69492201    -0.031706466  
   5441000   0.05076727    -0.82012732     0.049660406   -0.69436514     0.0030213091 
   5442000   0.051215853   -0.82029511     0.049234673   -0.69428622     0.01294104   
   5443000   0.050884304   -0.82116454     0.050116646   -0.69477069    -0.021076279  
   5444000   0.050043233   -0.821377       0.050706053   -0.69565452    -0.0064271224 
   5445000   0.052722306   -0.82057167     0.049822901   -0.69171634    -0.001735924  
   5446000   0.053089037   -0.82111128     0.049789442   -0.69173966    -0.0087542848 
   5447000   0.050917703   -0.82185522     0.050425133   -0.69510281    -0.0049327911 
   5448000   0.050036104   -0.81976816     0.047371194   -0.69739123     0.003668303  
   5449000   0.049972642   -0.82062756     0.04950893    -0.69620803     0.015320802  
   5450000   0.050459138   -0.82109185     0.046923684   -0.69852829    -0.021744426  
   5451000   0.052173247   -0.82064669     0.046891102   -0.69554621     0.018179888  
   5452000   0.051804241   -0.82002729     0.048994211   -0.69337685     0.027178707  
   5453000   0.051617386   -0.82059792     0.049515502   -0.69370629    -0.00036347556
   5454000   0.051881289   -0.82007598     0.048818545   -0.69348571     0.0083486008 
   5455000   0.051437959   -0.82229297     0.048589678   -0.69659613     0.017907502  
   5456000   0.049516946   -0.82005601     0.047368424   -0.69846009     0.013174442  
   5457000   0.051789572   -0.82086879     0.048474878   -0.69475968    -0.0081163996 
   5458000   0.051688478   -0.81910762     0.049153238   -0.69247169     0.0023613745 
   5459000   0.052089062   -0.81973979     0.050504004   -0.6911526      0.020574094  
   5460000   0.053617144   -0.81996606     0.053241545   -0.68635069     0.0060057692 
   5461000   0.050010558   -0.81891161     0.048083192   -0.69586098     0.022606555  
   5462000   0.052416722   -0.8195414      0.049449779   -0.69151727    -0.0037836368 
   5463000   0.051621359   -0.81663387     0.048102937   -0.69114885     0.012024298  
   5464000   0.051534922   -0.81772946     0.048834943   -0.69164201     0.041244963  
   5465000   0.050799529   -0.81879286     0.049352589   -0.69329014     0.025052321  
   5466000   0.049612672   -0.81902288     0.0489953     -0.69565659     0.030456833  
   5467000   0.052059984   -0.81934106     0.049402817   -0.69189865     0.033556758  
   5468000   0.051911927   -0.8179936      0.049085401   -0.69109055     0.016584904  
   5469000   0.051624207   -0.81929062     0.047779182   -0.69412509     0.014127556  
   5470000   0.051249725   -0.81930077     0.04910403    -0.69337175     0.023946956  
   5471000   0.051395134   -0.81997842     0.050621166   -0.69231429     0.0041988526 
   5472000   0.053765827   -0.81835147     0.052034569   -0.68572019     0.017459531  
   5473000   0.053803921   -0.81991474     0.048792813   -0.69046812     0.023520079  
   5474000   0.052529336   -0.81910101     0.051687282   -0.68867056     0.02424694   
   5475000   0.053613969   -0.82008186     0.050044715   -0.68966807     0.0045054981 
   5476000   0.052442823   -0.81987121     0.049757583   -0.69150014     0.0053609238 
   5477000   0.051191155   -0.81883054     0.048392543   -0.69370081     0.016199994  
   5478000   0.050950673   -0.8184462      0.047407619   -0.69466188     0.0039801069 
   5479000   0.05167277    -0.81802343     0.049181448   -0.69138283     0.016280198  
   5480000   0.053692856   -0.8181835      0.048127028   -0.68956915     0.032976103  
   5481000   0.052338125   -0.81636297     0.051459024   -0.68644741     0.0067930212 
   5482000   0.051075072   -0.8175709      0.049736663   -0.69127106     0.029154173  
   5483000   0.052117111   -0.81868163     0.047988575   -0.69256782     0.01703248   
   5484000   0.052833216   -0.81877078     0.047945883   -0.6916262      0.03288985   
   5485000   0.051821498   -0.81764929     0.047973267   -0.69199392     0.013789021  
   5486000   0.053384816   -0.81736524     0.048145837   -0.68919385     0.024029776  
   5487000   0.051934072   -0.81908017     0.048221094   -0.69300823     0.0071770918 
   5488000   0.052571068   -0.81803531     0.051202517   -0.68802706     0.035037038  
   5489000   0.050885663   -0.81958648     0.048502583   -0.69480465     0.029987856  
   5490000   0.052403076   -0.81905114     0.050352018   -0.69014522     0.018623352  
   5491000   0.053246555   -0.8191261      0.049678952   -0.68962885     0.036606424  
   5492000   0.050720068   -0.81669797     0.049077826   -0.69158913     0.026379355  
   5493000   0.050954548   -0.81911167     0.049269489   -0.69345967     0.042735942  
   5494000   0.051623114   -0.82061736     0.048968581   -0.69426407     0.058519832  
   5495000   0.052653037   -0.820402       0.050699723   -0.69077368     0.042315248  
   5496000   0.050325105   -0.81894902     0.05009994    -0.69341012     0.025906314  
   5497000   0.048834229   -0.81961897     0.05052838    -0.6958865      0.032059562  
   5498000   0.051260625   -0.81818326     0.049596069   -0.69174586     0.020216119  
   5499000   0.052108128   -0.81869326     0.047650331   -0.69293116     0.02712183   
   5500000   0.051962763   -0.8179861      0.049191559   -0.69090068     0.035170099  
Loop time of 1763.38 on 8 procs for 5000000 steps with 1550 atoms

Performance: 244983.617 tau/day, 2835.459 timesteps/s, 4.395 Matom-step/s
94.2% CPU use with 8 MPI tasks x 1 OpenMP threads

MPI task timing breakdown:
Section |  min time  |  avg time  |  max time  |%varavg| %total
---------------------------------------------------------------
Pair    | 211.58     | 300.77     | 434.44     | 424.6 | 17.06
Bond    | 44.446     | 54.386     | 68.855     | 111.7 |  3.08
Neigh   | 0.98186    | 0.98217    | 0.98256    |   0.0 |  0.06
Comm    | 217.02     | 361        | 456.34     | 415.6 | 20.47
Output  | 12.747     | 12.969     | 13.147     |   3.9 |  0.74
Modify  | 1013.8     | 1017.9     | 1020.9     |   9.0 | 57.72
Other   |            | 15.38      |            |       |  0.87

Nlocal:         193.75 ave         410 max          45 min
Histogram: 1 1 2 1 0 1 0 1 0 1
Nghost:          555.5 ave         678 max         426 min
Histogram: 1 1 0 0 2 1 1 0 1 1
Neighs:              0 ave           0 max           0 min
Histogram: 8 0 0 0 0 0 0 0 0 0
FullNghs:         7821 ave       17650 max        2177 min
Histogram: 1 3 1 0 1 0 0 1 0 1

Total # of neighbors = 62568
Ave neighs/atom = 40.366452
Ave special neighs/atom = 2.1612903
Neighbor list builds = 1793
Dangerous builds = 0

# Write data for deformation

write_restart ${Dir}/${file6_name}
write_restart /home/franvt/GitRepos/molDynLammps/polymericGels/gel-bonds-1/data/0.050.30.05500-2026-01-21-133721/${file6_name}
write_restart /home/franvt/GitRepos/molDynLammps/polymericGels/gel-bonds-1/data/0.050.30.05500-2026-01-21-133721/data.hydrogel
System init for write_restart ...
WARNING: Using a manybody potential with bonds/angles/dihedrals and special_bond exclusions (src/pair.cpp:250)
Hybrid pair style last /omp style table/omp
Last active /omp style is angle_style harmonic/omp
Total wall time: 0:31:45
