LAMMPS (22 Jul 2025)
OMP_NUM_THREADS environment is not set. Defaulting to 1 thread.
  using 1 OpenMP thread(s) per MPI task
package omp 0
using multi-threaded neighbor list subroutines
# Input Script of lammps for assembly simulation of polimeric network.
# Main code is based on: https://github.com/PipeB62/Hydrogel-Simulation
# Patchy particles are with bond style.

# Felipe Benavides modified by Fco. Vazquez

# Initialization
units lj
dimension 3
boundary p p p

# Styles of atoms and that stuff
atom_style full
bond_style harmonic
angle_style harmonic
pair_style hybrid/overlay zero 0.0 lj/cut/omp 1.12 table/omp linear 5000000 threebody/table

newton on

# Create simulaiton box
region simulation_box block -$L $L -$L $L -$L $L
region simulation_box block -9.796741 $L -$L $L -$L $L
region simulation_box block -9.796741 9.796741 -$L $L -$L $L
region simulation_box block -9.796741 9.796741 -9.796741 $L -$L $L
region simulation_box block -9.796741 9.796741 -9.796741 9.796741 -$L $L
region simulation_box block -9.796741 9.796741 -9.796741 9.796741 -9.796741 $L
region simulation_box block -9.796741 9.796741 -9.796741 9.796741 -9.796741 9.796741
# N-atom-types region-ID keyword value Is necesesary the extra/special/per/atom (# of special neighbors per atom)
create_box 4 simulation_box     bond/types 1     angle/types 2     extra/bond/per/atom 10     extra/angle/per/atom 6     extra/special/per/atom 10
Created orthogonal box = (-9.796741 -9.796741 -9.796741) to (9.796741 9.796741 9.796741)
  2 by 2 by 2 MPI processor grid

# Atom types
mass 1 1.0      # CL
mass 2 1.0      # MO
mass 3 1.0      # PA
mass 4 1.0      # PB

# Coefficients
include potential.in
# Script with the pair-wise interaction and bonds between particles

bond_coeff 1 100.0 0.45
angle_coeff 1 100.0 180
angle_coeff 2 100.0 109.4712
pair_coeff 1 3 zero 0.5
pair_coeff 1 4 zero 0.5
pair_coeff 2 3 zero 0.5
pair_coeff 2 4 zero 0.5
pair_coeff 3 3 zero 0.5
pair_coeff 1 1 lj/cut/omp 1.0 1.0 1.12
pair_coeff 2 2 lj/cut/omp 1.0 1.0 1.12
pair_coeff 1 2 lj/cut/omp 1.0 1.0 1.12
pair_coeff 3 4 table/omp sysFiles/pachTab.table POT 0.6 # sw/omp sysFiles/patchyPot.sw NULL NULL PA PB
Reading pair table potential file sysFiles/pachTab.table with DATE: 2024-07-08
WARNING: 7 of 1000000 force values in table POT are inconsistent with -dE/dr.
WARNING:  Should only be flagged at inflection points (src/pair_table.cpp:469)
pair_coeff 4 4 table/omp sysFiles/pachTab.table POT 0.6 # sw/omp sysFiles/patchyPot.sw NULL NULL PA PB
Reading pair table potential file sysFiles/pachTab.table with DATE: 2024-07-08
WARNING: 7 of 1000000 force values in table POT are inconsistent with -dE/dr.
WARNING:  Should only be flagged at inflection points (src/pair_table.cpp:469)
pair_coeff * * threebody/table swapMech.3b NULL NULL PA PB
pair_modify pair lj/cut/omp shift yes


# Molecules
include molecules.in
# Script with all molecule information and create groups for computes

# Read the molecule information
molecule CL sysFiles/molecule.patchy.CL
Read molecule template CL:
# Patchy Cross-Linker
  1 molecules
  0 fragments
  0 bodies
  5 atoms with max type 3
  4 bonds with max type 1
  6 angles with max type 2
  0 dihedrals with max type 0
  0 impropers with max type 0
molecule MO sysFiles/molecule.patchy.MO
Read molecule template MO:
# Patchy Monomer
  1 molecules
  0 fragments
  0 bodies
  3 atoms with max type 4
  2 bonds with max type 1
  1 angles with max type 1
  0 dihedrals with max type 0
  0 impropers with max type 0

# Introduce the molecules
# ID style args keyword arg
region spawn_box block -$L $L -$L $L -$L $L
region spawn_box block -9.796741 $L -$L $L -$L $L
region spawn_box block -9.796741 9.796741 -$L $L -$L $L
region spawn_box block -9.796741 9.796741 -9.796741 $L -$L $L
region spawn_box block -9.796741 9.796741 -9.796741 9.796741 -$L $L
region spawn_box block -9.796741 9.796741 -9.796741 9.796741 -9.796741 $L
region spawn_box block -9.796741 9.796741 -9.796741 9.796741 -9.796741 9.796741

# create_atoms type style args keyword values
# style_random: N seed region-ID
# keyword_mol: template-ID seed
# keyword_overlap: overlap value = only insert if at least this distance from all existing atoms
# keyword_maxtry: maxtry value = number of attempts to insert a particle before failure
create_atoms 0 random ${NCL} ${seed1} spawn_box mol CL ${seed1} overlap 1.0 maxtry 5000 #xls
create_atoms 0 random 25 ${seed1} spawn_box mol CL ${seed1} overlap 1.0 maxtry 5000 
create_atoms 0 random 25 3234 spawn_box mol CL ${seed1} overlap 1.0 maxtry 5000 
create_atoms 0 random 25 3234 spawn_box mol CL 3234 overlap 1.0 maxtry 5000 
Created 125 atoms
  using lattice units in orthogonal box = (-9.796741 -9.796741 -9.796741) to (9.796741 9.796741 9.796741)
  create_atoms CPU = 0.009 seconds
create_atoms 0 random ${NMO} ${seed2} spawn_box mol MO ${seed2} overlap 1.0 maxtry 5000 #mon
create_atoms 0 random 475 ${seed2} spawn_box mol MO ${seed2} overlap 1.0 maxtry 5000 
create_atoms 0 random 475 6321 spawn_box mol MO ${seed2} overlap 1.0 maxtry 5000 
create_atoms 0 random 475 6321 spawn_box mol MO 6321 overlap 1.0 maxtry 5000 
Created 1425 atoms
  using lattice units in orthogonal box = (-9.796741 -9.796741 -9.796741) to (9.796741 9.796741 9.796741)
  create_atoms CPU = 0.006 seconds

# Create patchy particles
group CrossLinker type 1 3
125 atoms in group CrossLinker
group Monomer type 2 4
1425 atoms in group Monomer
group Patches type 3 4
1050 atoms in group Patches
group CL type 1
25 atoms in group CL
group MO type 2
475 atoms in group MO
group PA type 3
100 atoms in group PA
group CM type 1 2
500 atoms in group CM

# Neighbor list
neighbor 1.8 bin # extra-distance style
#neigh_modify delay 0 every 1 check no
#neigh_modify exclude molecule/intra CrossLinker
#neigh_modify exclude molecule/intra Monomer

# COMPUTES

# Compute global kinetic and potential energy and temperature
compute t all temp
compute p all pressure t
compute ep all pe
compute ek all ke
variable eT equal etotal
variable eB equal ebond
variable eA equal eangle
variable eM equal emol
variable ec equal ecouple
variable eC equal econserve

# Potencial energy per pair-wise interaction
compute wcaPair all pair lj/cut/omp epair
compute patchPair all pair table/omp epair
compute swapPair all pair threebody/table epair

# Compute the pressure
compute press all pressure t ke virial
compute pressVirial all pressure t virial
compute pressVirialMod all pressure t pair bond angle

# Computes for the stress
compute cstress all stress/atom t ke pair bond angle
compute cstressVirial all stress/atom t virial
compute cstressVirialMod all stress/atom t pair bond angle
compute stress all reduce sum c_cstress[*]
compute stressVirial all reduce sum c_cstressVirial[*]
compute stressVirialMod all reduce sum c_cstressVirialMod[*]

# Displacement of the central particles
compute disp CM displace/atom
compute redDisp CM reduce ave c_disp[*] # All, because yes

# Get the number of central particles per cluster
compute clusters all aggregate/atom 0.6                             # Create the clusters
compute Nclpart CM chunk/atom c_clusters compress yes discard yes   # Get the number of clusters
compute clsize CM property/chunk Nclpart count                      # Counts the atoms in each chunk
compute idcl CM property/chunk Nclpart id                           # Get the ids of the clusters

# DUMPS and FIXES

thermo ${NsaveStress}
thermo 1000

# Save global energies and temperature
fix Energy all ave/time 1 ${Nsave} ${Nsave} c_t c_wcaPair c_patchPair c_swapPair c_ep c_ek v_eT v_ec v_eC c_p v_eB v_eA v_eM c_redDisp[*] file ${Dir}/${file1_name}
fix Energy all ave/time 1 1000 ${Nsave} c_t c_wcaPair c_patchPair c_swapPair c_ep c_ek v_eT v_ec v_eC c_p v_eB v_eA v_eM c_redDisp[*] file ${Dir}/${file1_name}
fix Energy all ave/time 1 1000 1000 c_t c_wcaPair c_patchPair c_swapPair c_ep c_ek v_eT v_ec v_eC c_p v_eB v_eA v_eM c_redDisp[*] file ${Dir}/${file1_name}
fix Energy all ave/time 1 1000 1000 c_t c_wcaPair c_patchPair c_swapPair c_ep c_ek v_eT v_ec v_eC c_p v_eB v_eA v_eM c_redDisp[*] file /home/franvt/GitRepos/molDynLammps/polymericGels/gel-bonds-1/data/0.050.30.05500-2026-01-27-123757/${file1_name}
fix Energy all ave/time 1 1000 1000 c_t c_wcaPair c_patchPair c_swapPair c_ep c_ek v_eT v_ec v_eC c_p v_eB v_eA v_eM c_redDisp[*] file /home/franvt/GitRepos/molDynLammps/polymericGels/gel-bonds-1/data/0.050.30.05500-2026-01-27-123757/system_assembly.fixf

# Save Pressure and Stress tensor
fix fixStress5 all ave/time 1 ${NsaveStress} ${NsaveStress} c_p c_press[*] c_pressVirial[*] c_pressVirialMod[*] c_stress[*] c_stressVirial[*] c_stressVirialMod[*] file ${Dir}/${file2_name}
fix fixStress5 all ave/time 1 1000 ${NsaveStress} c_p c_press[*] c_pressVirial[*] c_pressVirialMod[*] c_stress[*] c_stressVirial[*] c_stressVirialMod[*] file ${Dir}/${file2_name}
fix fixStress5 all ave/time 1 1000 1000 c_p c_press[*] c_pressVirial[*] c_pressVirialMod[*] c_stress[*] c_stressVirial[*] c_stressVirialMod[*] file ${Dir}/${file2_name}
fix fixStress5 all ave/time 1 1000 1000 c_p c_press[*] c_pressVirial[*] c_pressVirialMod[*] c_stress[*] c_stressVirial[*] c_stressVirialMod[*] file /home/franvt/GitRepos/molDynLammps/polymericGels/gel-bonds-1/data/0.050.30.05500-2026-01-27-123757/${file2_name}
fix fixStress5 all ave/time 1 1000 1000 c_p c_press[*] c_pressVirial[*] c_pressVirialMod[*] c_stress[*] c_stressVirial[*] c_stressVirialMod[*] file /home/franvt/GitRepos/molDynLammps/polymericGels/gel-bonds-1/data/0.050.30.05500-2026-01-27-123757/stress_assembly.fixf

# Save the global cluster information
fix 1 CM ave/time 1 1 ${Ndump} c_idcl c_clsize file ${Dir}/${file3_name} mode vector
fix 1 CM ave/time 1 1 1000 c_idcl c_clsize file ${Dir}/${file3_name} mode vector
fix 1 CM ave/time 1 1 1000 c_idcl c_clsize file /home/franvt/GitRepos/molDynLammps/polymericGels/gel-bonds-1/data/0.050.30.05500-2026-01-27-123757/${file3_name} mode vector
fix 1 CM ave/time 1 1 1000 c_idcl c_clsize file /home/franvt/GitRepos/molDynLammps/polymericGels/gel-bonds-1/data/0.050.30.05500-2026-01-27-123757/clust_assembly.fixf mode vector

# Save atom positions with cluster id
dump dumpID all custom ${Ndump} ${Dir}/traj/${file5_name} id mol c_clusters type x y z vx vy vz
dump dumpID all custom 1000 ${Dir}/traj/${file5_name} id mol c_clusters type x y z vx vy vz
dump dumpID all custom 1000 /home/franvt/GitRepos/molDynLammps/polymericGels/gel-bonds-1/data/0.050.30.05500-2026-01-27-123757/traj/${file5_name} id mol c_clusters type x y z vx vy vz
dump dumpID all custom 1000 /home/franvt/GitRepos/molDynLammps/polymericGels/gel-bonds-1/data/0.050.30.05500-2026-01-27-123757/traj/traj_assembly.*.dumpf id mol c_clusters type x y z vx vy vz
dump_modify dumpID pbc yes # remap atoms via periodic boundary conditions

# RUN SIMULATION

# Brownian Dynamics using Langevin Thermostat

timestep ${tstep}
timestep 0.001

fix VelVerlet all nve # Use Velocity Verlet integrator

# First elevate the temperature
fix ThermoLng all langevin 0.0 ${temp} ${damp} ${seed3} tally yes zero yes # Brownian Dynamics: langevin + nve
fix ThermoLng all langevin 0.0 0.05 ${damp} ${seed3} tally yes zero yes 
fix ThermoLng all langevin 0.0 0.05 1 ${seed3} tally yes zero yes 
fix ThermoLng all langevin 0.0 0.05 1 2010 tally yes zero yes 
run ${stepsheat}
run 500000
WARNING: Using a manybody potential with bonds/angles/dihedrals and special_bond exclusions (src/pair.cpp:250)
Hybrid pair style last /omp style table/omp
Last active /omp style is angle_style harmonic/omp
Neighbor list info ...
  update: every = 1 steps, delay = 0 steps, check = yes
  max neighbors/atom: 2000, page size: 100000
  master list distance cutoff = 2.92
  ghost atom cutoff = 2.92
  binsize = 1.46, bins = 14 14 14
  7 neighbor lists, perpetual/occasional/extra = 6 1 0
  (1) pair zero, perpetual, skip from (7)
      attributes: half, newton on, omp
      pair build: skip/omp
      stencil: none
      bin: none
  (2) pair lj/cut/omp, perpetual, skip from (7)
      attributes: half, newton on, omp
      pair build: skip/omp
      stencil: none
      bin: none
  (3) pair table/omp, perpetual, skip from (7)
      attributes: half, newton on, omp
      pair build: skip/omp
      stencil: none
      bin: none
  (4) pair threebody/table, perpetual, skip from (6)
      attributes: full, newton on, omp
      pair build: skip/omp
      stencil: none
      bin: none
  (5) compute aggregate/atom, occasional, copy from (6)
      attributes: full, newton on, omp
      pair build: copy
      stencil: none
      bin: none
  (6) neighbor class addition, perpetual
      attributes: full, newton on, omp
      pair build: full/bin/omp
      stencil: full/bin/3d
      bin: standard
  (7) neighbor class addition, perpetual, half/full from (6)
      attributes: half, newton on, omp
      pair build: halffull/newton/omp
      stencil: none
      bin: none
Per MPI rank memory allocation (min/avg/max) = 20.03 | 20.03 | 20.03 Mbytes
   Step          Temp          E_pair         E_mol          TotEng         Press     
         0   0              0.00041490155  0.15480456     0.15521947    -0.21361809   
      1000   0.038128237    0              0.00013757075  0.057293028    0.0036255212 
      2000   0.00015524756  8.543009e-08   0.020977048    0.021209855    0.068369326  
      3000   0.0053601671   0              0.0001566732   0.0081917366   0.0024773034 
      4000   0.00032043582  0              0.0030278828   0.0035082264  -0.026562159  
      5000   0.0011098552   0              0.00027894739  0.0019426561  -0.0005261401 
      6000   0.00052871377  0              0.00073390715  0.0015264661   0.0095531329 
      7000   0.00072896697  0              0.00040823029  0.0015009753  -1.2979742e-05
      8000   0.0007251149   0              0.00053299756  0.0016199682  -0.0032626071 
      9000   0.00081771509  1.3387704e-06  0.00052435467  0.0017514747   2.4759112e-06
     10000   0.00090243713  0              0.0006006103   0.0019533927   0.0011493598 
     11000   0.0010197323   0              0.00066288448  0.0021914962  -0.00042254769
     12000   0.0011051079   0              0.00072884253  0.0023854349  -0.00024522879
     13000   0.0011985165   0              0.00078137006  0.0025779849   0.00057614678
     14000   0.0013249056   0              0.00085482435  0.0028409006   0.00081224385
     15000   0.0014112991   0              0.00096232634  0.0030779093  -0.00010780047
     16000   0.0015343975   0              0.0010154688   0.0033155802  -0.00081771796
     17000   0.0016020278   4.7441589e-08  0.0010642477   0.0034657865   0.00030980887
     18000   0.0017598133   0              0.0011497192   0.003787736    0.0012942109 
     19000   0.0018430414   0              0.0012059735   0.003968752    5.7970273e-05
     20000   0.0019080305   0              0.0012946994   0.0041548986  -0.00044607826
     21000   0.001992366    5.7799363e-07  0.0013610759   0.0043482748   0.00069963965
     22000   0.0021283243  -3.6672612e-09  0.0014649008   0.0046553239   0.00056659963
     23000   0.0025735469  -0.0015218821   0.0017283014   0.004064249    0.00012610136
     24000   0.0024444094  -0.0016039619   0.0016864538   0.0037467405  -0.00025353478
     25000   0.0024681684  -0.0016016608   0.0016795706   0.0037777739  -0.00025316254
     26000   0.0025092316  -0.001589946    0.001707866    0.0038793392   0.00073864395
     27000   0.0030589285  -0.0031177114   0.002012252    0.0034799731   0.00066127919
     28000   0.002845273   -0.0031717067   0.0020052056   0.003098655   -0.00065030665
     29000   0.0028512639  -0.0032042003   0.0019482227   0.0030181589  -0.00057429635
     30000   0.0032344357  -0.0047618896   0.0020775691   0.0021642029  -0.00033739482
     31000   0.0030894149  -0.0048363168   0.0022389438   0.0020337595  -5.3009553e-05
     32000   0.0032581607  -0.0048324545   0.0021927205   0.0022443541   0.0004081845 
     33000   0.0032215756  -0.0048326584   0.0023286392   0.0023252265   0.00081874659
     34000   0.0040031854  -0.0075381178   0.0027834668   0.0012462531  -0.00038818505
     35000   0.0034571004  -0.0077706526   0.0024728762  -0.00011547145 -0.00047436738
     36000   0.0044781808  -0.010762873    0.002879389   -0.0011705465   0.00029027022
     37000   0.0046349367  -0.012733258    0.0026719396  -0.0031133985   0.0014358727 
     38000   0.003998545   -0.012685588    0.002635141   -0.004056499    0.00085337462
     39000   0.0042627611  -0.014426017    0.0027870632  -0.0052489372  -0.00031597353
     40000   0.004134619   -0.014466278    0.0026197665  -0.0056485844  -0.0001137876 
     41000   0.0039847584  -0.014424344    0.0027835834  -0.005667479    0.0012337074 
     42000   0.0041003877  -0.014461977    0.0027443035  -0.00557106     0.00093054757
     43000   0.0046610268  -0.016092878    0.0029636582  -0.0061421907  -0.00089918803
     44000   0.0050067312  -0.017410171    0.0032844405  -0.0066204791   0.00065734213
     45000   0.004455419   -0.017661738    0.0034852371  -0.0074976837   0.00065597604
     46000   0.0051730411  -0.018875657    0.0031358034  -0.0079852986   0.0012827956 
     47000   0.0048234191  -0.020213159    0.0036651187  -0.0093175793  -0.00014686758
     48000   0.0050129943  -0.020804911    0.0032635772  -0.010026693    0.0010465819 
     49000   0.0048960789  -0.02092223     0.003432082   -0.010150768    0.00069088756
     50000   0.0049235086  -0.020936616    0.0033882007  -0.010167917    0.00079825125
     51000   0.00492648    -0.020952896    0.0034339135  -0.01013403    -9.9449397e-06
     52000   0.0049640066  -0.020935875    0.0036265379  -0.0098681306   0.0005278417 
     53000   0.0051770599  -0.020929367    0.003623604   -0.0095451832   0.00036990358
     54000   0.0052657508  -0.020944248    0.0034947157  -0.0095560024   0.00086037796
     55000   0.0060853671  -0.023751249    0.0038114575  -0.01081763    -0.0011225271 
     56000   0.0062538265  -0.025626116    0.0044453757  -0.011806053   -0.00027783503
     57000   0.0059547504  -0.025535002    0.0040988231  -0.012509816    0.00078965433
     58000   0.0058286135  -0.025713989    0.0042028718  -0.012773837    0.00087809502
     59000   0.0059676236  -0.025765081    0.004081245   -0.012738176   -0.00083566962
     60000   0.0062263966  -0.028179923    0.0047460447  -0.014100309   -0.00074142725
     61000   0.0059818772  -0.028790768    0.0043156234  -0.015508118    0.0019284784 
     62000   0.0067672005  -0.030551642    0.0044656802  -0.01594171     0.00085783845
     63000   0.0061759127  -0.030546407    0.0042984406  -0.016990074    0.00022777165
     64000   0.006368309   -0.030614988    0.0043737853  -0.016694903    0.00091681367
     65000   0.006979178   -0.03180092     0.0046508149  -0.016688092   -0.0010421423 
     66000   0.006667507   -0.033497093    0.0049865955  -0.018515689   -0.00018351472
     67000   0.0070366041  -0.035029979    0.0048388929  -0.019642989    0.001288804  
     68000   0.0066585769  -0.035294355    0.0049549037  -0.020358029    0.00035402746
     69000   0.00774469    -0.03695675     0.0046795276  -0.020667683    0.00070925206
     70000   0.0075509027  -0.04064005     0.0055705939  -0.02375041    -0.0018496157 
     71000   0.0080932312  -0.043399417    0.005499981   -0.025767421    0.0017198277 
     72000   0.0073398181  -0.043454734    0.0052650805  -0.02718703     0.0016786875 
     73000   0.0082095926  -0.045840785    0.0054637154  -0.028070625    0.0004600615 
     74000   0.0077800166  -0.046450173    0.0052802499  -0.029507427   -0.00041996995
     75000   0.0074292031  -0.046591614    0.0053660244  -0.030088975   -0.00041463259
     76000   0.0080027951  -0.048257038    0.0055370475  -0.030723543    0.0020339269 
     77000   0.0076748602  -0.048277163    0.0053867585  -0.031385542    0.001708909  
     78000   0.008144959   -0.049644101    0.0054825338  -0.03195201    -0.00091277784
     79000   0.0074898826  -0.051124451    0.005852221   -0.034044654    0.00045086305
     80000   0.0082122728  -0.052183593    0.0058364175  -0.034036714   -0.00035149015
     81000   0.0085000032  -0.054556112    0.0056781302  -0.036136202    0.00015970755
     82000   0.0082185397  -0.056153057    0.0062090051  -0.037624196    0.00014269859
     83000   0.0096146426  -0.058705174    0.006278348   -0.038014166    0.00037179401
     84000   0.0092357251  -0.059354831    0.005857861   -0.03965232     0.00047488718
     85000   0.0081015621  -0.059531149    0.0058980691  -0.041488577   -9.8837603e-05
     86000   0.0088965743  -0.061422849    0.0060647872  -0.04202181    -0.00091965681
     87000   0.008721849   -0.062409196    0.0064831676  -0.042851695    0.0029836841 
     88000   0.010043441   -0.06582373     0.0067625536  -0.044005735    0.0013747767 
     89000   0.0095545455  -0.066951882    0.0061576629  -0.046471648    0.00010086466
     90000   0.010147375   -0.069095769    0.0060937386  -0.047790787    0.00022778544
     91000   0.0092176955  -0.069033274    0.0067508475  -0.048464804    0.00063674755
     92000   0.0095120861  -0.070714241    0.0067916841  -0.049663633    0.0015618703 
     93000   0.0092714691  -0.070794768    0.006522662   -0.050373875    0.0014469555 
     94000   0.0093884616  -0.070797593    0.0067830233  -0.049940963    0.0010637428 
     95000   0.010528898   -0.073839706    0.0066369646  -0.051419583    0.0018230506 
     96000   0.0097243418  -0.073761103    0.0063165777  -0.052867424   -0.0007493365 
     97000   0.010361445   -0.075603985    0.0070295896  -0.053042255    0.00013826626
     98000   0.010936829   -0.078282777    0.0072153604  -0.054672758    0.00022203233
     99000   0.010007058   -0.07857286     0.0069755328  -0.056596425   -0.00061588076
    100000   0.010245952   -0.0787175      0.0072617911  -0.056096696   -0.00060968091
    101000   0.010321905   -0.080184721    0.006843532   -0.05786832    -2.6514343e-05
    102000   0.0098863423  -0.080469564    0.0071374487  -0.05851217     0.0013675838 
    103000   0.011470406   -0.083627393    0.0076160969  -0.058816787    0.00050325661
    104000   0.011527542   -0.085612898    0.0075690398  -0.060763701    0.0024648261 
    105000   0.011119937   -0.087780608    0.0078257665  -0.063285697    0.00052593822
    106000   0.01170929    -0.09016856     0.0077799722  -0.064835983   -0.0010794652 
    107000   0.011522565   -0.09285923     0.0077139178  -0.067872615    0.0014563314 
    108000   0.013520888   -0.099770544    0.0085623327  -0.070939963    0.0011599371 
    109000   0.011529412   -0.1033862      0.0088490306  -0.077254211    9.9780679e-05
    110000   0.012026175   -0.10566135     0.0082480033  -0.079385721    0.00075832342
    111000   0.011215969   -0.10599615     0.0076627336  -0.081520322    0.00083506577
    112000   0.011155031   -0.10616894     0.0077189127  -0.081728273   -0.00026488348
    113000   0.011436224   -0.10621597     0.0077084037  -0.081364294    7.3577918e-05
    114000   0.012672019   -0.11039043     0.0085998253  -0.082794837    0.0012530127 
    115000   0.012153045   -0.11208671     0.0085175372  -0.085351362   -6.4095154e-05
    116000   0.012049636   -0.11466189     0.0086054506  -0.087993642   -0.0015391253 
    117000   0.012475121   -0.11862407     0.0086733129  -0.091250153    7.5243856e-05
    118000   0.012107023   -0.12041607     0.0084479045  -0.093819351   -0.00064658883
    119000   0.01204535    -0.12051711     0.0084959474  -0.093964791    0.00044286962
    120000   0.012324931   -0.12032784     0.0079052786  -0.093947097    0.002546416  
    121000   0.012407792   -0.12271983     0.008825208   -0.09529494     0.00050108849
    122000   0.012401394   -0.12311637     0.0084415558  -0.096084722    0.0016691381 
    123000   0.011876478   -0.12319375     0.0082742394  -0.097116289   -0.00048803204
    124000   0.012194979   -0.12423845     0.0084737887  -0.097483992   -0.00028064376
    125000   0.01382901    -0.1289544      0.0092042996  -0.09901997     0.00081872616
    126000   0.013532318   -0.13126531     0.009269218   -0.10171071     2.089286e-05 
    127000   0.013422787   -0.13222918     0.0090745474  -0.10303344     0.0011458959 
    128000   0.01305697    -0.13239615     0.0089163083  -0.10390702     0.0016813053 
    129000   0.013901345   -0.13554868     0.0096801266  -0.10502999    -0.0010019179 
    130000   0.014515354   -0.13970967     0.0098981145  -0.10805257     0.00067602792
    131000   0.014403114   -0.1420412      0.0096479086  -0.11080256     0.0011399594 
    132000   0.013534526   -0.14530191     0.0097091376  -0.11530408    -0.0014297299 
    133000   0.013935361   -0.14731384     0.0093771471  -0.11704713     0.001116396  
    134000   0.013743296   -0.14727201     0.0092967154  -0.11737366     0.0010666533 
    135000   0.013211017   -0.14750129     0.0093261828  -0.11837137     0.00014202117
    136000   0.013780473   -0.14863659     0.0097613426  -0.11821787    -0.00032239628
    137000   0.013719524   -0.14894608     0.0093593426  -0.11902073     0.0017593723 
    138000   0.014108659   -0.15042542     0.009965702   -0.11931038     0.00079664303
    139000   0.015088813   -0.15327996     0.0099065811  -0.12075476     0.0010943674 
    140000   0.014304595   -0.15498244     0.0099579756  -0.12358141     0.001730532  
    141000   0.014896781   -0.15950296     0.010671661   -0.12650054     0.0031210773 
    142000   0.014793751   -0.16252514     0.010302598   -0.13004623     0.004572795  
    143000   0.014515748   -0.16451705     0.010490515   -0.13226696    -0.001114894  
    144000   0.01467409    -0.16585172     0.010688805   -0.13316598    -0.0020086462 
    145000   0.014841122   -0.16780126     0.010504821   -0.13504912     0.00058536337
    146000   0.014736665   -0.16815503     0.010137453   -0.13592684    -0.00079215956
    147000   0.014361864   -0.16817113     0.0095640393  -0.13707819     0.003938837  
    148000   0.01499894    -0.17069085     0.010961234   -0.13724572     8.2031735e-05
    149000   0.015074084   -0.1711016      0.0102501     -0.13825497     0.00029807409
    150000   0.014775378   -0.17134213     0.010244992   -0.13894837     0.00060054862
    151000   0.014865357   -0.17143419     0.010594579   -0.13855596     0.0023887502 
    152000   0.014733832   -0.17133386     0.010197222   -0.13905015     0.0011953164 
    153000   0.015988859   -0.17258244     0.010890733   -0.13772389     0.0024751368 
    154000   0.016890567   -0.17657929     0.010734562   -0.14052522    -0.00065880089
    155000   0.017673577   -0.18163991     0.011484459   -0.14366219     0.00020061554
    156000   0.016850667   -0.18672565     0.011239986   -0.15022597     0.00099334075
    157000   0.016027164   -0.18720753     0.011618635   -0.15156366     0.0012959259 
    158000   0.016283158   -0.18840698     0.011257791   -0.15274021    -0.0013940708 
    159000   0.017417004   -0.19015408     0.011577384   -0.15246804     0.0018564337 
    160000   0.016986392   -0.19204908     0.011839973   -0.15474596     0.0041758701 
    161000   0.017577084   -0.19721331     0.012758411   -0.15810629    -0.00092751607
    162000   0.017873465   -0.19953715     0.012548658   -0.16019559     0.0010544551 
    163000   0.017145485   -0.20044114     0.011719645   -0.16301986    -0.0013090027 
    164000   0.01712986    -0.20077679     0.011194461   -0.16390411     0.0032302857 
    165000   0.016867472   -0.20249509     0.011634597   -0.16557561     0.00079302524
    166000   0.016456944   -0.20252875     0.010657878   -0.16720138     0.0011509973 
    167000   0.016588445   -0.20395057     0.010954425   -0.16812954    -0.00030986769
    168000   0.016057684   -0.20660228     0.011953038   -0.17057825     0.0042852502 
    169000   0.017168699   -0.20726462     0.011909885   -0.1696183     -0.00039637791
    170000   0.018276109   -0.21289851     0.012614821   -0.17288722     0.0027619669 
    171000   0.016871873   -0.21533971     0.012104266   -0.17794396     0.0022270666 
    172000   0.01776086    -0.21950502     0.012329428   -0.18055149     0.001458955  
    173000   0.01821083    -0.22024923     0.011717568   -0.18123304     0.00089082746
    174000   0.018424561   -0.2219578      0.012144979   -0.18219381     0.0013546197 
    175000   0.018021361   -0.22286528     0.012157948   -0.18369273     0.0010737294 
    176000   0.017521007   -0.22402785     0.01222924    -0.18553406     0.003807806  
    177000   0.018572592   -0.22814757     0.013152346   -0.18715431     0.0020975418 
    178000   0.019396382   -0.23378502     0.012746896   -0.19196232     0.0022301358 
    179000   0.019286247   -0.23857558     0.012768579   -0.19689629     0.0011942358 
    180000   0.020012342   -0.2434053      0.013601381   -0.19980477     0.00043931301
    181000   0.019616133   -0.24925713     0.014002185   -0.20584973    -0.0011483431 
    182000   0.019846924   -0.25220946     0.013094885   -0.2093634     -0.00015707134
    183000   0.018635253   -0.25401413     0.012919778   -0.21315951     0.00079790832
    184000   0.018645194   -0.25558145     0.013279696   -0.214352       0.0012432956 
    185000   0.02007051    -0.26032581     0.012747095   -0.21749238     0.0037292452 
    186000   0.019205024   -0.26321807     0.012925978   -0.22150315    -0.00061408131
    187000   0.019679092   -0.2655222      0.013465428   -0.22255717     0.002174655  
    188000   0.019132589   -0.26801971     0.013966107   -0.22537323    -0.00097507536
    189000   0.020568542   -0.27214989     0.013551274   -0.22776571     0.0044701066 
    190000   0.020426855   -0.27274972     0.013685914   -0.22844329    -0.0010718764 
    191000   0.02026278    -0.27745076     0.014829273   -0.23224693    -0.0019528121 
    192000   0.020501168   -0.27865836     0.012939726   -0.23498672    -0.00039290035
    193000   0.019621333   -0.2799573      0.013776497   -0.2367678      0.0031177733 
    194000   0.019652124   -0.28159023     0.013605281   -0.23852578    -0.0026033652 
    195000   0.019208809   -0.28465322     0.01386167    -0.24199692     0.0014196881 
    196000   0.019756139   -0.28668318     0.014337996   -0.2427301      0.0021656856 
    197000   0.020022588   -0.28675735     0.014348992   -0.24239386     0.00049725078
    198000   0.020162652   -0.28832783     0.014059479   -0.24404388    -0.00039772921
    199000   0.020344766   -0.28822962     0.014148976   -0.24358318     0.0013713678 
    200000   0.020452538   -0.28972339     0.014133288   -0.24493109     0.0025838999 
    201000   0.021985558   -0.29270988     0.015035431   -0.24471739     0.00043527789
    202000   0.020399303   -0.29440381     0.01496008    -0.24886452    -0.0015580297 
    203000   0.02093595    -0.29431165     0.013252321   -0.24967566     0.00064081848
    204000   0.020493191   -0.29605846     0.014387981   -0.25095053     0.002738051  
    205000   0.02132659    -0.30043791     0.014136346   -0.25433232     0.00079495153
    206000   0.020358111   -0.30043657     0.014106904   -0.2558122     -0.0026651965 
    207000   0.021717843   -0.3020811      0.013813566   -0.25571179     0.0039748795 
    208000   0.021018348   -0.30452263     0.014883766   -0.25813168     0.005092124  
    209000   0.021422838   -0.3052308      0.01457729    -0.25853998     0.0031397046 
    210000   0.020817126   -0.30518753     0.014933459   -0.25904853    -0.00016831311
    211000   0.020506167   -0.30541841     0.014392963   -0.26028604     0.00060154759
    212000   0.021363727   -0.30711445     0.014517319   -0.26057221     0.0034733889 
    213000   0.021978852   -0.31092459     0.01550453    -0.26247306    -0.00053335789
    214000   0.021875679   -0.31390421     0.016639266   -0.26447259    -0.0016097553 
    215000   0.022679495   -0.32040979     0.015938889   -0.2704736      0.00014125681
    216000   0.022561446   -0.32388554     0.015215261   -0.27484994     0.0030340404 
    217000   0.022563907   -0.32457206     0.015623906   -0.27512413     0.0028214791 
    218000   0.023707431   -0.32712768     0.015425828   -0.27616365     0.0022644388 
    219000   0.022106766   -0.32761455     0.015648255   -0.27882754     0.0013183515 
    220000   0.022415963   -0.33036874     0.015909191   -0.2808573      0.0023717465 
    221000   0.022310815   -0.33396048     0.016570492   -0.28394536    -0.0013896674 
    222000   0.023819826   -0.33644877     0.014958558   -0.28578352    -0.00053199746
    223000   0.024561166   -0.34447935     0.016647203   -0.29101417     0.0048946279 
    224000   0.022899086   -0.34532137     0.016425108   -0.29456979    -0.0030641815 
    225000   0.022971275   -0.34596398     0.015919736   -0.29560957     0.00056378021
    226000   0.022706275   -0.34674298     0.016126025   -0.29657952     0.0008916573 
    227000   0.022991731   -0.34908        0.016729825   -0.29788483     0.0020998647 
    228000   0.023112003   -0.34896169     0.015325433   -0.29899062     0.0021702242 
    229000   0.023411876   -0.35026486     0.015710329   -0.29945937     0.001301426  
    230000   0.023644378   -0.35309761     0.016418537   -0.30123539     1.7197951e-05
    231000   0.022994441   -0.35277081     0.015586865   -0.30271453     0.0019068029 
    232000   0.024122265   -0.35601443     0.016770591   -0.30308378    -7.2585346e-05
    233000   0.024673905   -0.35868661     0.015958774   -0.30574085     0.00089904609
    234000   0.024442236   -0.36184648     0.016176142   -0.30903064     0.0010773596 
    235000   0.024743679   -0.36396678     0.016562161   -0.31031304     9.5991238e-07
    236000   0.025085784   -0.36716803     0.017108502   -0.31245513     0.0011241243 
    237000   0.023486037   -0.36860766     0.016513431   -0.3168879     -0.00042772356
    238000   0.023378594   -0.37046299     0.016445925   -0.3189718      0.00029452582
    239000   0.024493856   -0.37074672     0.016507903   -0.31752174     0.0032109998 
    240000   0.024947461   -0.37215546     0.017596511   -0.3171619     -0.0027225727 
    241000   0.025356983   -0.37451156     0.016865716   -0.31963491    -5.0442386e-05
    242000   0.024725624   -0.37527532     0.018238141   -0.31997267     0.00083964059
    243000   0.02439789    -0.37549581     0.017306039   -0.32161655     0.002920697  
    244000   0.025224359   -0.37672715     0.017327726   -0.32158729    -0.0020539936 
    245000   0.023794553   -0.37717928     0.016517666   -0.32499281     0.0016594302 
    246000   0.024079668   -0.37713233     0.016905267   -0.32413086     0.00025803424
    247000   0.024341073   -0.37697726     0.01651511    -0.3239741      0.0061510107 
    248000   0.024839877   -0.37685336     0.016644573   -0.32297301    -0.001120514  
    249000   0.024518606   -0.37798076     0.017008296   -0.32421828     0.003160021  
    250000   0.025517744   -0.37847924     0.017827422   -0.32239989     0.00036415199
    251000   0.025291529   -0.37856069     0.018395998   -0.32225188     0.00036504264
    252000   0.025093802   -0.37984259     0.01828387    -0.3239423      0.0050193762 
    253000   0.025407539   -0.38217756     0.017819288   -0.32627155    -0.0015383161 
    254000   0.026145272   -0.38487517     0.01675347    -0.3289291     -0.0010627174 
    255000   0.026474679   -0.3882358      0.01756422    -0.33098518     0.0018425346 
    256000   0.026920421   -0.39110788     0.017050928   -0.33370237     0.0045821279 
    257000   0.025459391   -0.39124511     0.017780886   -0.33529977     8.9503505e-05
    258000   0.027526689   -0.3940772      0.018137467   -0.33467633     0.004536227  
    259000   0.026186486   -0.39615008     0.018843956   -0.33805173    -0.0019580988 
    260000   0.026164874   -0.40002192     0.019411453   -0.34138847     0.0025058233 
    261000   0.027805755   -0.40225954     0.018524881   -0.34205293    -0.00061292534
    262000   0.025910364   -0.40270697     0.017384822   -0.34648167    -0.0011984413 
    263000   0.027002691   -0.40513275     0.018498587   -0.34615626     0.0025446472 
    264000   0.026257296   -0.40717884     0.018149079   -0.34966923     0.0012943946 
    265000   0.026196124   -0.40764956     0.01815078    -0.35022994     0.0022274487 
    266000   0.027150907   -0.40740196     0.017851969   -0.34884991     0.0013857407 
    267000   0.02729872    -0.40725118     0.018594057   -0.34773546     0.0033568122 
    268000   0.026707806   -0.40740609     0.018170148   -0.34920008    -0.0014613583 
    269000   0.026379728   -0.4086973      0.018654972   -0.35049827     0.0029401109 
    270000   0.026978646   -0.40897616     0.018376049   -0.35015825     0.0035589455 
    271000   0.02716356    -0.40872778     0.01840872    -0.3496         5.4793637e-05
    272000   0.02711365    -0.40872109     0.019102653   -0.3489742     -0.0025584882 
    273000   0.027668758   -0.41025933     0.020515027   -0.34826795     0.0019275842 
    274000   0.028153887   -0.41340786     0.019035267   -0.352169      -0.0013761163 
    275000   0.026670292   -0.41409852     0.019632905   -0.35448599    -0.0020804061 
    276000   0.028185129   -0.41606716     0.019199707   -0.35461704     0.0048738004 
    277000   0.028188656   -0.41996961     0.019463082   -0.35825082     0.0042068271 
    278000   0.02811738    -0.42331235     0.01879091    -0.36237258     0.00019524814
    279000   0.028594868   -0.42547542     0.020327229   -0.36228356    -0.0013536075 
    280000   0.027828672   -0.42817488     0.018677778   -0.36778102     0.0043354401 
    281000   0.027968519   -0.42913256     0.019367785   -0.36783906     0.0044363091 
    282000   0.02940179    -0.43084543     0.019984748   -0.36678645    -0.00124419   
    283000   0.028540124   -0.43142132     0.019293285   -0.36934547     0.0012665425 
    284000   0.029282764   -0.43413399     0.019576687   -0.37066149     0.00024259651
    285000   0.030243423   -0.43615392     0.02027323    -0.37054482     0.00046078074
    286000   0.030419135   -0.43963226     0.020523047   -0.37350994    -0.0024726518 
    287000   0.029063647   -0.44268396     0.019619313   -0.3794973      0.00044419086
    288000   0.028366971   -0.4446229      0.02050707    -0.38159283     0.0022640371 
    289000   0.030148822   -0.4473871      0.019344896   -0.38284815     0.001496075  
    290000   0.029596193   -0.44862571     0.021525868   -0.3827342      0.00013872007
    291000   0.030017461   -0.45133407     0.020329479   -0.38600745     0.0029334681 
    292000   0.029955074   -0.45158825     0.019128489   -0.38755614     0.0024974939 
    293000   0.031059187   -0.45336964     0.01960539    -0.38720552     0.002759021  
    294000   0.030227334   -0.45458466     0.021933649   -0.38733926    -0.00052289449
    295000   0.03090695    -0.45826928     0.020271888   -0.39166687     0.0034702728 
    296000   0.030463423   -0.4599779      0.020356555   -0.3939557      0.0020160272 
    297000   0.028748933   -0.46170507     0.020484639   -0.39812486     0.0035143553 
    298000   0.030430977   -0.46377892     0.020814846   -0.39734706     0.0028888668 
    299000   0.029641183   -0.46543783     0.020731191   -0.40027355    -0.0036302307 
    300000   0.032206199   -0.47087609     0.021079152   -0.40151881     0.0053940298 
    301000   0.031161952   -0.47378786     0.021065161   -0.40600992     0.0051674569 
    302000   0.029469564   -0.47455786     0.020144463   -0.41023757     0.0015880208 
    303000   0.02952577    -0.47652981     0.020321892   -0.41194783     0.0026216796 
    304000   0.030272223   -0.47815029     0.021350096   -0.41142115     0.0042682317 
    305000   0.03197922    -0.47940349     0.022435543   -0.40903006     0.0030780736 
    306000   0.031481833   -0.48255533     0.020963646   -0.4143994      5.9113774e-05
    307000   0.03109176    -0.48305382     0.021233887   -0.41521238     0.0041012963 
    308000   0.032071771   -0.48381273     0.020899264   -0.41483685     0.0018560512 
    309000   0.031764465   -0.48470618     0.02161275    -0.41547747     0.0052580205 
    310000   0.032974755   -0.48780542     0.022587791   -0.4157874      0.00061543006
    311000   0.032258756   -0.48912437     0.021948581   -0.41881887    -9.0010121e-05
    312000   0.032650584   -0.49079592     0.022569279   -0.41928237     0.0016815468 
    313000   0.030932582   -0.49172604     0.022795174   -0.42256193     0.00073667901
    314000   0.031569224   -0.49150625     0.022087314   -0.42209566    -0.0024068693 
    315000   0.032528077   -0.49298332     0.021094212   -0.42312848     0.0008972276 
    316000   0.031976226   -0.49444866     0.021619329   -0.42489594     0.0019144332 
    317000   0.031472215   -0.49455665     0.02148922    -0.42588956    -0.0019563173 
    318000   0.032063381   -0.49464862     0.022200588   -0.42438399     0.0022133477 
    319000   0.031348923   -0.4957703      0.023244611   -0.42553264    -0.0053354788 
    320000   0.032838891   -0.49865272     0.022865605   -0.42656056     0.00071386387
    321000   0.032084879   -0.49797613     0.02238062    -0.42749924    -0.0051595227 
    322000   0.032433567   -0.49910052     0.022173071   -0.42830848     0.0053910818 
    323000   0.032076453   -0.50003104     0.021981779   -0.42996563     0.0046570225 
    324000   0.034154685   -0.50158939     0.022010952   -0.42837946     0.0031864781 
    325000   0.033131335   -0.50421831     0.023291327   -0.43126204    -0.00073668722
    326000   0.03250228    -0.50497284     0.022214613   -0.43403626     0.0075603605 
    327000   0.033053516   -0.50541414     0.022134649   -0.43373121    -0.0015252927 
    328000   0.033215779   -0.50577422     0.022060277   -0.43392242     0.0013844028 
    329000   0.032685611   -0.50553708     0.022433655   -0.43410664    -3.2227239e-05
    330000   0.03406218    -0.51023549     0.023710263   -0.43546492     0.0059912131 
    331000   0.035342057   -0.51359308     0.023011897   -0.4376023     -0.00094075306
    332000   0.033720348   -0.5161897      0.024426832   -0.44121498     0.0011433979 
    333000   0.033913708   -0.51935844     0.023242596   -0.4452781      0.0037762929 
    334000   0.034184361   -0.52306211     0.02357109    -0.44824756     0.0011122069 
    335000   0.033442669   -0.52572395     0.023084424   -0.45250789     0.0012317188 
    336000   0.033382603   -0.52758153     0.024467588   -0.45307234     0.00048046897
    337000   0.033639352   -0.52943687     0.022880514   -0.45612988    -0.0036101043 
    338000   0.033865855   -0.53052089     0.023448399   -0.45630648     0.0028094396 
    339000   0.034892887   -0.53155768     0.023101755   -0.45615036     0.0050154204 
    340000   0.034102881   -0.5325682      0.022463982   -0.4589829     -0.002771862  
    341000   0.034551718   -0.53401024     0.022828926   -0.45938718     0.0061668738 
    342000   0.032989855   -0.53458783     0.023623342   -0.46151163    -0.0012846655 
    343000   0.034019213   -0.53651981     0.024421096   -0.46110281     0.0018168698 
    344000   0.034952602   -0.53805575     0.024035026   -0.46162565     0.0010473599 
    345000   0.033741253   -0.54139937     0.023648859   -0.46717129     0.0057129153 
    346000   0.035618448   -0.54435115     0.022483166   -0.46847478     0.00016996709
    347000   0.034136258   -0.54453601     0.023272232   -0.47009242     0.0023565377 
    348000   0.034070381   -0.5456135      0.023966576   -0.47057432    -0.00067877058
    349000   0.035373408   -0.54648025     0.024112266   -0.46934211     0.00036467249
    350000   0.035059711   -0.5469072      0.024258173   -0.47009339    -0.0005090374 
    351000   0.035197852   -0.54678303     0.025114103   -0.46890621    -0.00077167912
    352000   0.036590257   -0.54846839     0.024719556   -0.46889886     0.0048507406 
    353000   0.035717968   -0.54973143     0.023938119   -0.47225092    -0.0052913242 
    354000   0.034726876   -0.55025338     0.024132209   -0.47406447     0.001225842  
    355000   0.034765584   -0.55032941     0.024741043   -0.47347363    -0.00083616836
    356000   0.035040905   -0.55016347     0.024902743   -0.47273328    -0.0020897014 
    357000   0.036118485   -0.55037427     0.026546514   -0.46968499     0.0052841893 
    358000   0.03663016    -0.55023601     0.024861378   -0.47046484     0.00028419156
    359000   0.037206546   -0.55205749     0.026278219   -0.47000546    -0.00036132423
    360000   0.036112721   -0.55422492     0.025632228   -0.47445855    -0.0021655692 
    361000   0.036403524   -0.55535654     0.025793446   -0.47499304     0.0001455435 
    362000   0.037214766   -0.55590603     0.024769642   -0.47535025    -0.0001166746 
    363000   0.037925024   -0.55879282     0.025042354   -0.47689963     0.0031481434 
    364000   0.036770285   -0.56043132     0.026145928   -0.47916555    -0.0037443529 
    365000   0.037430757   -0.56190901     0.025977822   -0.47982128     0.00076094234
    366000   0.037101237   -0.56155459     0.024409579   -0.48152906     0.0038552169 
    367000   0.03686254    -0.56191996     0.025439596   -0.48122223    -0.0053534144 
    368000   0.038437832   -0.566046       0.025573336   -0.48285311    -0.0021388769 
    369000   0.035293267   -0.56566362     0.024505916   -0.48825196     0.0048781014 
    370000   0.036694609   -0.56608768     0.024012042   -0.48706924     0.0015441635 
    371000   0.037413664   -0.56893289     0.025368457   -0.48748015     0.0034216452 
    372000   0.037960621   -0.57182865     0.025798984   -0.48912547    -0.0011713352 
    373000   0.036892497   -0.57234277     0.026141618   -0.49089811     0.0079763861 
    374000   0.038540878   -0.57188388     0.025986753   -0.48812311    -0.0018070336 
    375000   0.039245543   -0.57185823     0.026128332   -0.48689956     0.00040819097
    376000   0.038335515   -0.57233423     0.025613573   -0.48925449    -0.00059777289
    377000   0.037738415   -0.57453254     0.026431256   -0.49153018     0.0017583703 
    378000   0.036625844   -0.57520819     0.026412223   -0.49389264    -0.0011453583 
    379000   0.038935271   -0.57683801     0.026386377   -0.49208641    -0.0027153376 
    380000   0.036447915   -0.57667266     0.026237443   -0.49579862     0.0021666786 
    381000   0.038046831   -0.58001595     0.026762707   -0.49621982     0.0036133982 
    382000   0.037132921   -0.58139034     0.028035928   -0.49769096     0.0017257169 
    383000   0.039150864   -0.58513963     0.027478331   -0.49897289    -0.003067461  
    384000   0.038311114   -0.58739559     0.026531354   -0.50343465     0.0019899482 
    385000   0.039911404   -0.59052513     0.024524523   -0.50617212     0.0029288238 
    386000   0.039411538   -0.59106101     0.025744168   -0.50623768    -0.00092335716
    387000   0.038826826   -0.59117526     0.02813669    -0.50483591    -0.0051012516 
    388000   0.039482117   -0.5915808      0.02619486    -0.50620098    -0.0002560665 
    389000   0.038568578   -0.59147045     0.027183183   -0.50647172     0.0015915962 
    390000   0.039255903   -0.59541202     0.028840852   -0.5077253     -0.003517815  
    391000   0.039485599   -0.59542012     0.027564163   -0.50866577     0.0031642255 
    392000   0.039045537   -0.59557545     0.027013465   -0.51003146    -0.0040981659 
    393000   0.040222542   -0.59885419     0.027076078   -0.51148322     0.0034394652 
    394000   0.038106984   -0.59983135     0.026673646   -0.51603411    -0.0041012097 
    395000   0.040964863   -0.60181383     0.027449318   -0.51295686    -0.0060862145 
    396000   0.039160151   -0.60158423     0.028161397   -0.5147205      0.0047858664 
    397000   0.03970961    -0.60324395     0.027116379   -0.51660158     0.0020056191 
    398000   0.040453097   -0.60443645     0.028228017   -0.51556794     0.00047790891
    399000   0.041036992   -0.60781303     0.027925026   -0.51837223     0.0011692352 
    400000   0.040844672   -0.60819921     0.028171215   -0.51880051     0.002299827  
    401000   0.042487219   -0.60801932     0.028107069   -0.51622254     0.00098485749
    402000   0.040019452   -0.60796745     0.026137873   -0.52183912     0.0012926198 
    403000   0.042432471   -0.61044146     0.028452856   -0.51838096     0.0026401752 
    404000   0.041038033   -0.61298135     0.028116114   -0.5233479     -0.0027542072 
    405000   0.040857554   -0.61314766     0.029272277   -0.52262859     0.0011867094 
    406000   0.042384582   -0.6136927      0.028587005   -0.52156984     0.0010335353 
    407000   0.041619248   -0.61385196     0.028255386   -0.52320798     0.0077884061 
    408000   0.040900146   -0.61406889     0.027923739   -0.52483451    -0.0025610975 
    409000   0.040886397   -0.61509451     0.02779911    -0.52600537    -0.00064079176
    410000   0.04261863    -0.61572681     0.0273562     -0.52448391     4.6070374e-05
    411000   0.041137994   -0.61650523     0.030164965   -0.52467309    -0.0017477985 
    412000   0.040814372   -0.61618662     0.028035981   -0.52696858     0.0024311876 
    413000   0.041914113   -0.61890859     0.030345315   -0.52573267    -0.002039017  
    414000   0.042409257   -0.61972961     0.027956622   -0.52820015     5.6895564e-05
    415000   0.042167535   -0.62100299     0.028511582   -0.52928091     0.00074209063
    416000   0.041943554   -0.62268517     0.029170865   -0.53063957     0.0013065295 
    417000   0.041746661   -0.62421491     0.028829328   -0.53280599     0.0060968096 
    418000   0.040960973   -0.62433196     0.029202738   -0.5337274     -0.00060618917
    419000   0.040812722   -0.62521961     0.028844754   -0.53519527     0.0014504304 
    420000   0.040797623   -0.62772273     0.029230572   -0.53733521     0.0053260042 
    421000   0.042717605   -0.62710511     0.027313107   -0.53575693     0.0032504245 
    422000   0.040820661   -0.62701784     0.028573356   -0.53725299     0.00086886885
    423000   0.040963148   -0.62803413     0.029304828   -0.53732422    -0.0022157111 
    424000   0.040906392   -0.62708038     0.028837761   -0.53692261     0.0013297872 
    425000   0.043396554   -0.62918689     0.030470348   -0.53366371    -0.00014965316
    426000   0.04160062    -0.629932       0.029540678   -0.53803065    -0.0019466569 
    427000   0.042931032   -0.63017406     0.028016463   -0.53780259    -0.0057996052 
    428000   0.041911764   -0.63089064     0.030111774   -0.53795178    -0.00017858495
    429000   0.044462143   -0.6319818      0.030562453   -0.53476916    -4.4403613e-05
    430000   0.042852225   -0.63257852     0.028248546   -0.54009311    -0.0003220642 
    431000   0.044119875   -0.63625374     0.029006611   -0.54111001     0.007004562  
    432000   0.044077446   -0.63704801     0.031201724   -0.53977277     0.00054104096
    433000   0.0456646     -0.64174171     0.031663562   -0.54162544    -0.0013000173 
    434000   0.044274189   -0.642055       0.031391267   -0.54429529     0.00097060382
    435000   0.043586243   -0.64184427     0.031440954   -0.54506613     0.003426733  
    436000   0.045527296   -0.64542146     0.029949257   -0.54722532    -0.0010458935 
    437000   0.043929032   -0.64838771     0.030466682   -0.55207       -0.00043474874
    438000   0.043113298   -0.64953102     0.029060173   -0.55584262    -0.00055071722
    439000   0.044458299   -0.64832156     0.030055801   -0.55162134     0.0013223823 
    440000   0.046895857   -0.65263789     0.030827148   -0.55151234     0.00043183686
    441000   0.043413265   -0.65220309     0.029648906   -0.5574763      0.00057555506
    442000   0.043444656   -0.65346464     0.031954879   -0.55638482    -0.004926137  
    443000   0.044310379   -0.65527599     0.030244218   -0.55860909    -0.0035740225 
    444000   0.044026527   -0.6561249      0.031250827   -0.55887689     0.0047256124 
    445000   0.044949615   -0.65831247     0.031943437   -0.55898811     0.0019112307 
    446000   0.045621244   -0.65922572     0.031350124   -0.55948788    -0.007229618  
    447000   0.043571446   -0.65950366     0.031969939   -0.56221872    -0.0016778124 
    448000   0.043778575   -0.65889063     0.029847703   -0.56341743     0.0039174651 
    449000   0.044846503   -0.66001864     0.030374897   -0.56241739     0.00077279578
    450000   0.044247819   -0.66050336     0.030693868   -0.56348059    -0.0014151314 
    451000   0.046114749   -0.66131412     0.030678656   -0.56150797     0.0029197913 
    452000   0.045748784   -0.6615331      0.032408206   -0.56054599    -0.0044118472 
    453000   0.046702049   -0.66476921     0.033183879   -0.56157745    -0.00059252152
    454000   0.046950804   -0.66556646     0.029939352   -0.56524633     0.0040738671 
    455000   0.044334508   -0.66644597     0.0323642     -0.56762292    -0.0014402637 
    456000   0.044305414   -0.66767121     0.030981148   -0.57027481     0.00062419936
    457000   0.047709987   -0.66973029     0.032553107   -0.56565838     0.00070171453
    458000   0.047217905   -0.67045727     0.032127855   -0.56754825     0.0017383    
    459000   0.046372689   -0.6734658      0.031195911   -0.57275573    -0.0061210163 
    460000   0.047310373   -0.67458959     0.031312728   -0.57235709     0.0040939816 
    461000   0.044929159   -0.67408544     0.030584014   -0.57615117    -0.0021280646 
    462000   0.047353468   -0.67526103     0.032553081   -0.57172358     0.0014468727 
    463000   0.045686042   -0.67507304     0.032644429   -0.57394376    -0.00066362727
    464000   0.046060464   -0.67590487     0.034193907   -0.57266485    -0.0013033038 
    465000   0.047451247   -0.67928941     0.032377339   -0.57578112    -0.0029962085 
    466000   0.046579418   -0.68104245     0.032781619   -0.57843679    -0.0014341709 
    467000   0.047070036   -0.68381822     0.031609884   -0.58164883    -0.0063500671 
    468000   0.043783005   -0.68379743     0.031532741   -0.58663256     0.0011319547 
    469000   0.046997445   -0.68370851     0.032248794   -0.58100903     0.0027131692 
    470000   0.047205461   -0.6857034      0.033335252   -0.58160564    -0.0029046998 
    471000   0.047281635   -0.68731012     0.034135702   -0.58229773     0.00019907862
    472000   0.048073153   -0.68751861     0.033423124   -0.58203228    -0.0016392837 
    473000   0.047366037   -0.6886845      0.034612652   -0.58306863    -0.0018029306 
    474000   0.048615276   -0.69002113     0.034797415   -0.58234785    -0.0016434012 
    475000   0.047477244   -0.69208952     0.034880911   -0.58603869    -0.0026405444 
    476000   0.047661527   -0.6944284      0.035278658   -0.58770358    -4.7605267e-05
    477000   0.048976148   -0.69503016     0.032812159   -0.58880117     0.0017859639 
    478000   0.048318171   -0.69503506     0.03196196    -0.5906426      0.0062847672 
    479000   0.047704487   -0.69796642     0.034554801   -0.59190105     0.0033500602 
    480000   0.047250399   -0.6975406      0.034285588   -0.59242514     0.0031702414 
    481000   0.047951973   -0.69823932     0.034198517   -0.59215925    -0.0020146154 
    482000   0.050916621   -0.6974866      0.034389974   -0.58677097    -0.00016033274
    483000   0.049125283   -0.69699553     0.035821142   -0.587534       0.0014768692 
    484000   0.048748395   -0.69871143     0.033028224   -0.59260779     0.0001347116 
    485000   0.049970797   -0.70368719     0.034637845   -0.59414151    -0.0019863434 
    486000   0.04921283    -0.70522726     0.035353583   -0.59610205    -0.0027291586 
    487000   0.050311867   -0.7057814      0.033418042   -0.59694425     0.00025381197
    488000   0.048875115   -0.70655595     0.033482713   -0.59980786     0.0063343971 
    489000   0.048852067   -0.70802321     0.03362691    -0.60116547    -0.0023194535 
    490000   0.049285462   -0.70896741     0.034437181   -0.60064973    -0.0018373049 
    491000   0.049422232   -0.71038529     0.034834526   -0.60146525    -0.0015585291 
    492000   0.049167352   -0.71247808     0.034630317   -0.60414432    -0.0020589499 
    493000   0.04951911    -0.71353861     0.033315372   -0.60599249    -0.0010765662 
    494000   0.048704209   -0.71656505     0.034571582   -0.60898429    -0.002905647  
    495000   0.049331597   -0.71962407     0.03571978    -0.60995464    -0.0017391986 
    496000   0.050526187   -0.72379273     0.035862373   -0.61218998     0.00019939352
    497000   0.051180876   -0.72762489     0.03514629    -0.61575681    -0.0024262319 
    498000   0.050123274   -0.72787549     0.034299492   -0.61843959     0.0017557658 
    499000   0.048701209   -0.73067198     0.03625867    -0.62140862    -0.0035233734 
    500000   0.052337403   -0.73078846     0.03619944    -0.61613357     0.0043998326 
Loop time of 125.373 on 8 procs for 500000 steps with 1550 atoms

Performance: 344572.466 tau/day, 3988.107 timesteps/s, 6.182 Matom-step/s
91.5% CPU use with 8 MPI tasks x 1 OpenMP threads

MPI task timing breakdown:
Section |  min time  |  avg time  |  max time  |%varavg| %total
---------------------------------------------------------------
Pair    | 13.434     | 14.772     | 16.724     |  25.9 | 11.78
Bond    | 4.9199     | 5.3332     | 5.8873     |  12.2 |  4.25
Neigh   | 0.046659   | 0.046784   | 0.04691    |   0.0 |  0.04
Comm    | 11.66      | 14.1       | 15.706     |  33.5 | 11.25
Output  | 0.40433    | 0.42682    | 0.44931    |   2.3 |  0.34
Modify  | 89.271     | 89.323     | 89.392     |   0.4 | 71.25
Other   |            | 1.371      |            |       |  1.09

Nlocal:         193.75 ave         237 max         170 min
Histogram: 2 2 0 1 1 1 0 0 0 1
Nghost:         637.75 ave         709 max         592 min
Histogram: 3 0 0 2 0 1 0 0 1 1
Neighs:              0 ave           0 max           0 min
Histogram: 8 0 0 0 0 0 0 0 0 0
FullNghs:       3033.5 ave        4414 max        2372 min
Histogram: 2 1 2 1 0 1 0 0 0 1

Total # of neighbors = 24268
Ave neighs/atom = 15.656774
Ave special neighs/atom = 2.1612903
Neighbor list builds = 181
Dangerous builds = 0

unfix ThermoLng

# Now we let the system to create the polymeric network
fix ThermoLng all langevin ${temp} ${temp} ${damp} ${seed3} tally yes zero yes # Brownian Dynamics: langevin + nve
fix ThermoLng all langevin 0.05 ${temp} ${damp} ${seed3} tally yes zero yes 
fix ThermoLng all langevin 0.05 0.05 ${damp} ${seed3} tally yes zero yes 
fix ThermoLng all langevin 0.05 0.05 1 ${seed3} tally yes zero yes 
fix ThermoLng all langevin 0.05 0.05 1 2010 tally yes zero yes 
run ${steps}
run 3500000
WARNING: Using a manybody potential with bonds/angles/dihedrals and special_bond exclusions (src/pair.cpp:250)
Hybrid pair style last /omp style table/omp
Last active /omp style is angle_style harmonic/omp
Per MPI rank memory allocation (min/avg/max) = 24.03 | 24.04 | 24.04 Mbytes
   Step          Temp          E_pair         E_mol          TotEng         Press     
    500000   0.052337403   -0.73078846     0.03619944    -0.61613357     0.0043998326 
    501000   0.049811897   -0.73003967     0.035327846   -0.62004218    -0.0044671591 
    502000   0.050806186   -0.73112578     0.035301078   -0.61966459     0.0027990337 
    503000   0.050365995   -0.73088178     0.038068651   -0.61731288     0.0033440536 
    504000   0.05067376    -0.73292929     0.03613613    -0.62083156    -0.0022866727 
    505000   0.05048117    -0.73333887     0.035193773   -0.6224722      0.0012394757 
    506000   0.049375954   -0.73565558     0.037130727   -0.62450871     0.004772558  
    507000   0.050333739   -0.7375264      0.034329573   -0.62774492    -0.0023868862 
    508000   0.048826206   -0.73775752     0.035782758   -0.6287827      0.0022239332 
    509000   0.048780074   -0.73615162     0.035489199   -0.62753952     0.0012608716 
    510000   0.050055665   -0.73972793     0.036025543   -0.62866733    -0.0049622813 
    511000   0.050533079   -0.7396906      0.035432519   -0.62850736     0.0010786776 
    512000   0.051859543   -0.74063684     0.03494765    -0.62795006    -0.0011288631 
    513000   0.049996913   -0.7399472      0.035378824   -0.62962139    -0.001729067  
    514000   0.050593326   -0.74063837     0.036147209   -0.62865013    -0.003196619  
    515000   0.050544841   -0.74093703     0.035758305   -0.62941038     0.00044208219
    516000   0.049735643   -0.74047396     0.03636155    -0.62955708     0.00084974812
    517000   0.050076495   -0.74184391     0.035429919   -0.63134771     0.0043446883 
    518000   0.052259997   -0.74064515     0.032141852   -0.63016387     0.0017042622 
    519000   0.049384449   -0.74322488     0.035835242   -0.63336075     0.0044759212 
    520000   0.049605406   -0.74311686     0.034957208   -0.63379955    -0.005171145  
    521000   0.0507003     -0.74323865     0.03716389    -0.63007338     0.00028390172
    522000   0.050976216   -0.74451134     0.037349763   -0.63074659    -0.00079114092
    523000   0.05051553    -0.74451824     0.034921833   -0.63387199     0.0012316107 
    524000   0.049243942   -0.74411523     0.035627512   -0.63466946    -0.002099121  
    525000   0.050188769   -0.74398038     0.036169215   -0.63257659     0.0010883841 
    526000   0.050881873   -0.74531979     0.036723125   -0.63232309    -0.0022309053 
    527000   0.050036352   -0.74447789     0.035767049   -0.63370473     0.0029479124 
    528000   0.050691771   -0.74428494     0.035598222   -0.63269812     0.00091436464
    529000   0.051037743   -0.74342856     0.035278438   -0.6316429      0.0035000018 
    530000   0.049827913   -0.74611445     0.035930581   -0.63549022    -0.0051379718 
    531000   0.051299886   -0.74688473     0.034873118   -0.63511142     0.0044349234 
    532000   0.05069713    -0.74860875     0.035836526   -0.63677559    -0.00066724595
    533000   0.049634627   -0.74955666     0.033281604   -0.64187115    -0.0053083646 
    534000   0.048022316   -0.74952665     0.033878772   -0.64366088    -0.003800477  
    535000   0.05035031    -0.75013128     0.036065474   -0.63858907    -0.0015039785 
    536000   0.051346305   -0.75109578     0.034128372   -0.63999764     0.00010453565
    537000   0.049876231   -0.7526681      0.036713281   -0.64118874    -0.0034453296 
    538000   0.051000152   -0.75446272     0.036009633   -0.64200222     0.0012459079 
    539000   0.050186526   -0.75613939     0.035466591   -0.64544158     0.00018690893
    540000   0.051114875   -0.75696209     0.036606292   -0.64373296     0.0033948098 
    541000   0.051060444   -0.7577383      0.032881548   -0.6483155      0.001967357  
    542000   0.051062728   -0.75981221     0.034362671   -0.64890486     0.0022914888 
    543000   0.051298369   -0.76062662     0.035289981   -0.64843873    -0.00063757612
    544000   0.04992628    -0.76086896     0.035161327   -0.65086652    -0.0026282988 
    545000   0.049637863   -0.76083496     0.03524313    -0.65118307     0.0052594334 
    546000   0.048852416   -0.76262319     0.034540158   -0.65485168    -0.0047726354 
    547000   0.051323827   -0.76329928     0.034498694   -0.65186451     0.0025537458 
    548000   0.05072141    -0.76415179     0.033724223   -0.65439454    -0.00072926702
    549000   0.048020354   -0.76542982     0.035270182   -0.65817557    -0.0073877001 
    550000   0.050882633   -0.76754871     0.034079501   -0.65719451    -0.0039956904 
    551000   0.049571211   -0.76952746     0.036150762   -0.65906785    -0.0030244315 
    552000   0.050434186   -0.76913307     0.03459652    -0.65893408     0.0028040438 
    553000   0.047785255   -0.76838898     0.035532212   -0.66122513    -0.0026037758 
    554000   0.050849305   -0.76815511     0.036365361   -0.655565      -0.0055188266 
    555000   0.051777395   -0.76925814     0.034530089   -0.65711207    -0.0018216518 
    556000   0.050303292   -0.76929798     0.034974386   -0.65891734     0.0051513659 
    557000   0.050749194   -0.77158126     0.035894519   -0.65961206    -0.0039166241 
    558000   0.049918283   -0.77379848     0.037368953   -0.66160041     0.0028153621 
    559000   0.049340413   -0.77390874     0.035592419   -0.66435345     0.0010122366 
    560000   0.052735867   -0.7740276      0.035064298   -0.65991053     0.0027835413 
    561000   0.05092887    -0.77424904     0.035081033   -0.66282399    -0.0018754486 
    562000   0.051145473   -0.77438452     0.035623841   -0.66209196     0.0032694667 
    563000   0.049958887   -0.77517927     0.035369435   -0.66491985     0.001793898  
    564000   0.051684895   -0.77843914     0.037078886   -0.66388293    -0.0040901398 
    565000   0.048859484   -0.77802002     0.034874328   -0.66990375    -0.0013589401 
    566000   0.049932442   -0.78300602     0.037272825   -0.67088286     0.0016917414 
    567000   0.049323003   -0.78199589     0.034932299   -0.67312682     0.0019649963 
    568000   0.050279247   -0.78050625     0.033511537   -0.6716245      0.0097068051 
    569000   0.048413831   -0.78212173     0.036621854   -0.67292599    -0.0062769521 
    570000   0.050148314   -0.781749       0.035868414   -0.67070664    -0.0023964287 
    571000   0.049970558   -0.78178061     0.033963473   -0.67290966    -0.0057478746 
    572000   0.05037057    -0.78172837     0.035443083   -0.67077817     0.0031031171 
    573000   0.050667552   -0.78024474     0.034782531   -0.66950991    -0.0010377034 
    574000   0.051463835   -0.78168733     0.035960623   -0.66858075     0.005649323  
    575000   0.050754957   -0.78287104     0.035488263   -0.67129946    -0.007580568  
    576000   0.050311857   -0.78438593     0.034811576   -0.67415525    -0.00063284025
    577000   0.050347025   -0.78393124     0.034342539   -0.67411689    -0.0033675932 
    578000   0.050158114   -0.78644383     0.035557989   -0.67569721    -0.0030838313 
    579000   0.050411628   -0.78551361     0.035540881   -0.67440408    -0.0026270613 
    580000   0.050848884   -0.7904874      0.034781765   -0.67948151    -0.0082924793 
    581000   0.050918013   -0.79357362     0.035292322   -0.68195355     0.0018398089 
    582000   0.050687317   -0.79483236     0.036066719   -0.68278372    -0.00045815816
    583000   0.050048152   -0.7976211      0.037031158   -0.68556614    -0.0019533917 
    584000   0.051326949   -0.79978891     0.035252308   -0.68759585     0.0065817573 
    585000   0.050150728   -0.79953708     0.035819165   -0.68854035     0.0028560026 
    586000   0.048734412   -0.79946218     0.036064895   -0.69034283     0.0028170293 
    587000   0.049793367   -0.80042676     0.035773067   -0.69001183     0.0035017731 
    588000   0.050494103   -0.80227229     0.035765365   -0.69081463    -0.0015414584 
    589000   0.050530564   -0.80324098     0.035451237   -0.6920428      0.0033701829 
    590000   0.048538467   -0.80281307     0.035476725   -0.69457562     0.00076498124
    591000   0.049190421   -0.80215499     0.03659861    -0.69181835    -0.0069285826 
    592000   0.051580554   -0.80460281     0.033075117   -0.69420678    -0.0015397193 
    593000   0.051651109   -0.80356116     0.03385606    -0.69227842    -0.0036026939 
    594000   0.051414368   -0.80446086     0.035302343   -0.69208672     0.0023411381 
    595000   0.051743911   -0.80579516     0.034751485   -0.69347789    -0.001654186  
    596000   0.050535602   -0.80755725     0.037097213   -0.69470554     0.0038984033 
    597000   0.051270592   -0.80916764     0.036662384   -0.69564898    -0.0029952148 
    598000   0.051051846   -0.80832107     0.035346927   -0.69644577    -0.0052479534 
    599000   0.050348492   -0.80836385     0.037890186   -0.69499965     0.0033469833 
    600000   0.05290595    -0.8090384      0.036433525   -0.69329715    -0.0049207101 
    601000   0.052577082   -0.81080023     0.035519136   -0.69646635     0.0040668393 
    602000   0.048935956   -0.8097321      0.035471061   -0.70090447     0.0018496062 
    603000   0.049168344   -0.81090644     0.033593822   -0.70360769    -0.0083909912 
    604000   0.049244852   -0.81096267     0.034603461   -0.70253959    -0.00087387136
    605000   0.050551789   -0.8105355      0.035147003   -0.69960973    -0.0002840278 
    606000   0.049596356   -0.80885786     0.035002156   -0.69950917    -0.0012745122 
    607000   0.049112408   -0.80997432     0.035063113   -0.70129013     0.0031409762 
    608000   0.050210343   -0.81062848     0.034866732   -0.70049483     0.0027313167 
    609000   0.049172181   -0.80969512     0.035160195   -0.70082424    -0.0006600619 
    610000   0.051273955   -0.8108936      0.034896074   -0.69913621    -0.0041610058 
    611000   0.050252407   -0.81127684     0.035947999   -0.69999886     0.0021898746 
    612000   0.051166134   -0.81277892     0.035377545   -0.70070169    -0.008596504  
    613000   0.049999276   -0.81327819     0.033735975   -0.70459169     6.638655e-05 
    614000   0.048583224   -0.81389028     0.034909033   -0.70615343    -0.00036778509
    615000   0.051040911   -0.81447112     0.035307084   -0.70265206     0.0022515658 
    616000   0.050815634   -0.81432842     0.03597073    -0.70218341    -0.0067858604 
    617000   0.050075251   -0.81415182     0.035482754   -0.70360465    -0.007873814  
    618000   0.048428268   -0.81368337     0.033967722   -0.70712011     0.0028636934 
    619000   0.048949392   -0.81522248     0.035452994   -0.70639277    -0.0069228043 
    620000   0.050662457   -0.81646547     0.035877714   -0.7046431      0.0073365293 
    621000   0.050399782   -0.81730367     0.037569415   -0.70418336    -0.00022203751
    622000   0.05090261    -0.81737127     0.034655243   -0.70641137     0.0027782247 
    623000   0.050416495   -0.81725697     0.035565897   -0.70611512    -5.3489801e-06
    624000   0.051025978   -0.81745055     0.035687073   -0.70527389    -0.0019864009 
    625000   0.049998949   -0.81581146     0.036529267   -0.70433216     0.0027926797 
    626000   0.050658778   -0.81746884     0.035412036   -0.70611766    -0.00023094556
    627000   0.051052832   -0.81698843     0.036120264   -0.70433833     0.0041602489 
    628000   0.050275095   -0.81548351     0.036449609   -0.70366991     0.00098319135
    629000   0.051929247   -0.81571354     0.036494685   -0.70137524     0.0057596395 
    630000   0.051219189   -0.81659383     0.037122928   -0.70269169     0.0031285171 
    631000   0.052115488   -0.8173023      0.034621868   -0.70455763     0.0046411044 
    632000   0.051993856   -0.81827671     0.035672074   -0.70466417     0.0011447656 
    633000   0.051003298   -0.81752012     0.034945918   -0.70611861    -0.0022951469 
    634000   0.04963987    -0.81645468     0.034531573   -0.70751134     0.00016151496
    635000   0.050085776   -0.81738513     0.036983476   -0.70532146    -0.010179801  
    636000   0.052133746   -0.81693318     0.038007203   -0.70077581    -0.0020028421 
    637000   0.050140975   -0.81681222     0.035298632   -0.70635065    -0.0038667588 
    638000   0.049901745   -0.81587484     0.036393327   -0.70467718     0.0064263587 
    639000   0.05008566    -0.81688054     0.034947449   -0.70685307     0.0021941955 
    640000   0.049779287   -0.81607331     0.036621983   -0.70483057     0.0027709174 
    641000   0.051974909   -0.81673438     0.035664699   -0.70315761    -0.0073286728 
    642000   0.051473548   -0.8158545      0.036144965   -0.70254902    -0.0036480178 
    643000   0.049561206   -0.8169355      0.036691111   -0.70595054     0.0061132568 
    644000   0.047773359   -0.81689346     0.034781748   -0.7104979     -0.0087916409 
    645000   0.049705295   -0.81649455     0.033712237   -0.70827247    -0.0055406929 
    646000   0.051780879   -0.81914967     0.036574408   -0.70495406     0.0020139468 
    647000   0.048202484   -0.818526       0.037354817   -0.7089141     -0.001281461  
    648000   0.049355332   -0.81779049     0.036410418   -0.70739483    -0.0077127323 
    649000   0.04976792    -0.81748686     0.033824788   -0.70905835     0.0019163649 
    650000   0.050041414   -0.8188452      0.033449888   -0.71038162     0.00095028392
    651000   0.049404519   -0.82034311     0.034480593   -0.71180355     0.0012522126 
    652000   0.051099577   -0.82090301     0.034385289   -0.70991781    -0.00207095   
    653000   0.051079848   -0.82298279     0.034985485   -0.71142697    -0.00070357377
    654000   0.050957734   -0.82230878     0.033608813   -0.71231268     0.0026129845 
    655000   0.051471827   -0.82295386     0.033740801   -0.71205513    -0.0019181766 
    656000   0.049968382   -0.8235347      0.036783386   -0.71184709     0.0038005037 
    657000   0.051520477   -0.82451769     0.035283018   -0.71200381    -0.0071918557 
    658000   0.050949125   -0.82477204     0.036821778   -0.71157588    -0.0036492807 
    659000   0.052157331   -0.8254522      0.036427945   -0.71083873    -0.0066552848 
    660000   0.05203215    -0.8256135      0.035444859   -0.71217077    -0.0025216262 
    661000   0.051622121   -0.82844832     0.037543452   -0.71352164     0.00061642796
    662000   0.049919899   -0.82970738     0.034993642   -0.71988219     0.0043899181 
    663000   0.049755794   -0.83377519     0.034495195   -0.72469445    -0.0021386257 
    664000   0.050939266   -0.8353343      0.033537835   -0.72543686     8.6746385e-05
    665000   0.051679237   -0.83886902     0.03477121    -0.72662897     0.0039926639 
    666000   0.050410565   -0.8392536      0.035373833   -0.7283127     -0.0059160309 
    667000   0.05022334    -0.84025247     0.035624822   -0.72934124     0.0025439286 
    668000   0.050226593   -0.83977976     0.036135801   -0.72835268    -0.0026661223 
    669000   0.050099149   -0.84004053     0.035584257   -0.72935603     0.0033144113 
    670000   0.05005825    -0.84146968     0.036346462   -0.73008429    -0.0001078191 
    671000   0.049850553   -0.84057931     0.035413547   -0.73043818     0.00026806516
    672000   0.050185626   -0.8387888      0.036131824   -0.72742711    -0.0022924008 
    673000   0.049861855   -0.8394659      0.03864117    -0.7260802      0.0048921492 
    674000   0.051583324   -0.84080856     0.037782315   -0.72570118    -0.0061443004 
    675000   0.049791989   -0.84039702     0.035220761   -0.73053646     0.0003252852 
    676000   0.050387244   -0.84055376     0.034758195   -0.73026346     0.0027958265 
    677000   0.049669806   -0.8406395      0.036623956   -0.7295589      7.6486018e-05
    678000   0.051228473   -0.83984884     0.035939604   -0.7271161     -0.0023321337 
    679000   0.051372054   -0.84161974     0.035725009   -0.72888637    -0.0021572536 
    680000   0.049081037   -0.83995252     0.035694408   -0.73068405     0.0037456503 
    681000   0.049400939   -0.8420955      0.035603087   -0.73243881    -0.0016494264 
    682000   0.049664916   -0.84188175     0.037554059   -0.72987838    -0.0027148667 
    683000   0.050412778   -0.84122971     0.035205721   -0.73045361     0.0012702372 
    684000   0.049170963   -0.84181058     0.03462202    -0.7334797      0.001364513  
    685000   0.049037919   -0.84302337     0.034455444   -0.73505851     0.0022027345 
    686000   0.051120504   -0.842066       0.036310664   -0.72912405     2.3334164e-05
    687000   0.049959159   -0.84201743     0.035874506   -0.73125253     0.0020527724 
    688000   0.051480836   -0.84140042     0.034700305   -0.72952868    -0.0014873517 
    689000   0.050925616   -0.84238641     0.035483728   -0.73056355     0.0053672359 
    690000   0.051682657   -0.84410658     0.035485377   -0.73114723    -0.003076446  
    691000   0.050229112   -0.84491487     0.036086118   -0.73353369     0.0060201736 
    692000   0.050102054   -0.84490086     0.034406388   -0.73538988    -0.0023468774 
    693000   0.05043443    -0.84713699     0.034154067   -0.73738009    -0.0070651035 
    694000   0.0512015     -0.84990069     0.034727441   -0.73842054     0.0028449165 
    695000   0.050335081   -0.84995816     0.033126079   -0.74137817     0.0018693693 
    696000   0.048651243   -0.84948789     0.037559868   -0.73899824     0.00040725426
    697000   0.051979817   -0.85035861     0.035234696   -0.73720449     0.0042605604 
    698000   0.04889952    -0.84986569     0.037842282   -0.73872146    -0.0020271833 
    699000   0.049820674   -0.85145124     0.034682616   -0.74208583    -0.0021681746 
    700000   0.051493001   -0.85168126     0.036056531   -0.73843506    -0.00012799352
    701000   0.051907021   -0.85206444     0.032494616   -0.74175952    -0.00051735733
    702000   0.049373104   -0.85168284     0.036829605   -0.74084136    -0.00092558189
    703000   0.05105403    -0.85208325     0.03331714    -0.74223448    -0.0035032215 
    704000   0.050849677   -0.85190686     0.035469497   -0.74021206    -0.002166557  
    705000   0.050812545   -0.85206673     0.034664031   -0.74123306    -0.0016407135 
    706000   0.050223845   -0.85334485     0.037416107   -0.74064158     0.00010541677
    707000   0.050748518   -0.85415052     0.037617711   -0.74045915    -0.003436311  
    708000   0.05224614    -0.85527456     0.035072317   -0.74188359    -0.014532068  
    709000   0.051261868   -0.85486482     0.034003123   -0.7440185     -0.0020729205 
    710000   0.049300832   -0.85430191     0.03487726    -0.74552111     0.0063538056 
    711000   0.047518972   -0.85682965     0.034830489   -0.75076669     0.0052819461 
    712000   0.050046508   -0.85796643     0.034663403   -0.7482817     -0.0012263592 
    713000   0.04786927    -0.85827031     0.034075499   -0.75243723    -0.0052692191 
    714000   0.050577121   -0.85861191     0.033703655   -0.74909152    -0.00099859466
    715000   0.050032909   -0.86038642     0.035108896   -0.75027658     0.00021915009
    716000   0.050697333   -0.86069905     0.035166312   -0.7495358     -0.0045985298 
    717000   0.049593384   -0.86337302     0.034800788   -0.75423015     0.011602725  
    718000   0.050918099   -0.86619573     0.036237958   -0.75362989    -0.0090077312 
    719000   0.052021032   -0.86687222     0.039487657   -0.74940336     0.0014303694 
    720000   0.051608844   -0.86789703     0.035247054   -0.75528666     0.0059402987 
    721000   0.051203352   -0.86714324     0.03369668    -0.75669108    -0.00091941525
    722000   0.05090915    -0.86733702     0.033522004   -0.75750056    -0.00097893292
    723000   0.050014944   -0.86686006     0.035402958   -0.75648309    -0.0055712882 
    724000   0.050517096   -0.8677561      0.035538957   -0.75649039     0.0041591142 
    725000   0.04863125    -0.86741298     0.036711759   -0.75780141     0.0090684602 
    726000   0.049917362   -0.86791123     0.033958868   -0.75912463     0.0078240956 
    727000   0.04761029    -0.86887142     0.034370485   -0.76313158     0.0033704384 
    728000   0.050470255   -0.8700686      0.033740488   -0.76067157    -0.00164609   
    729000   0.049764041   -0.86919119     0.033533046   -0.76106024    -0.0059619944 
    730000   0.050309062   -0.86877803     0.035899624   -0.7574635     -0.00013527383
    731000   0.052384309   -0.86923747     0.034786654   -0.75592505    -0.0057916495 
    732000   0.050928653   -0.87030328     0.035991763   -0.75796782    -0.0028543184 
    733000   0.050666901   -0.87142456     0.036609839   -0.7588634     -0.0005415922 
    734000   0.051316396   -0.87034087     0.034974939   -0.75844099     0.00050620148
    735000   0.051372395   -0.87055034     0.037434893   -0.75610657     0.0065381188 
    736000   0.051030038   -0.87014838     0.034054684   -0.75959802     0.002045203  
    737000   0.050643018   -0.86974951     0.034506534   -0.75932746     0.0035776658 
    738000   0.051196908   -0.86991016     0.034830382   -0.75833397     0.00069703681
    739000   0.049725826   -0.87026147     0.035776674   -0.75994417    -0.0088015263 
    740000   0.050433693   -0.87192043     0.035103557   -0.76121514     6.3017733e-05
    741000   0.050326702   -0.87480693     0.03648188    -0.7628837     -0.002267678  
    742000   0.050059783   -0.87592058     0.035553393   -0.76532596    -0.00087363616
[...]
   3793000   0.05098425    -1.2308247      0.044760079   -1.1096376     -0.0065513804 
   3794000   0.051001077   -1.2307067      0.046828151   -1.1074263     -0.0081134758 
   3795000   0.050685412   -1.2298699      0.04578495    -1.1081058     -0.010155972  
   3796000   0.051899842   -1.2314134      0.046871788   -1.1067421     -0.0083291486 
   3797000   0.04895182    -1.2303782      0.046393614   -1.1106043     -0.016527044  
   3798000   0.05026446    -1.228801       0.041932796   -1.1115202     -0.002253643  
   3799000   0.051492678   -1.2306339      0.04552424    -1.1079204     -0.0087046534 
   3800000   0.050733865   -1.2294098      0.045565186   -1.1077929     -0.010992616  
   3801000   0.050189268   -1.2302617      0.046560887   -1.1084654     -0.011407207  
   3802000   0.052477407   -1.2315938      0.047687541   -1.105241      -0.0044927735 
   3803000   0.050469303   -1.2316317      0.045692164   -1.1102844     -0.014155981  
   3804000   0.050671619   -1.2315253      0.044835638   -1.1107313     -0.015587926  
   3805000   0.049311296   -1.2310582      0.045627887   -1.111511      -0.020614159  
   3806000   0.049584026   -1.2298113      0.044564611   -1.1109187     -0.0020049867 
   3807000   0.050748208   -1.2289634      0.044867429   -1.1080228     -0.0036327803 
   3808000   0.050297355   -1.2303843      0.046149903   -1.1088371     -0.0017622849 
   3809000   0.050466464   -1.2295698      0.044738412   -1.1091805     -0.0080240533 
   3810000   0.050091776   -1.230383       0.044018162   -1.1112757      0.0046272487 
   3811000   0.051558802   -1.2296183      0.045082364   -1.1072477     -0.0011824257 
   3812000   0.049267182   -1.2310979      0.044332171   -1.1129126     -0.0086168298 
   3813000   0.049513334   -1.2308431      0.045131902   -1.1114892     -0.0099569862 
   3814000   0.050174928   -1.2308981      0.041854514   -1.1138297     -0.009014217  
   3815000   0.050152847   -1.2309529      0.041097608   -1.1146746     -0.0065894838 
   3816000   0.049659009   -1.2308536      0.047163915   -1.1092493     -0.0092394534 
   3817000   0.051604067   -1.2309324      0.044195462   -1.1093808      0.00040845094
   3818000   0.05007288    -1.2302267      0.046926993   -1.1082388     -0.017243865  
   3819000   0.051157026   -1.2300496      0.046429795   -1.1069338     -0.019764678  
   3820000   0.051030066   -1.2297815      0.045366665   -1.1079191     -0.0094450213 
   3821000   0.052617875   -1.2311394      0.045167895   -1.1070956     -0.0045467744 
   3822000   0.048780473   -1.2317674      0.045408222   -1.1132357     -0.015647574  
   3823000   0.049622172   -1.2316488      0.043949974   -1.1133136     -0.019056674  
   3824000   0.049284585   -1.2306914      0.045842126   -1.1109701     -0.0059632931 
   3825000   0.050442487   -1.2304616      0.044371871   -1.1104748     -0.0019756522 
   3826000   0.049593819   -1.2302642      0.046289796   -1.1096317     -0.011913534  
   3827000   0.050402774   -1.2289909      0.045188272   -1.1082473     -0.0064102356 
   3828000   0.051442862   -1.2311867      0.046891607   -1.1071806     -0.00061753656
   3829000   0.053723394   -1.232354       0.046219765   -1.1056011     -0.0064646212 
   3830000   0.05386278    -1.2313572      0.044852908   -1.1057622     -0.0029047293 
   3831000   0.051370441   -1.2353278      0.047560647   -1.1107612     -0.007818039  
   3832000   0.051413379   -1.2344619      0.046813752   -1.1105778     -0.010824497  
   3833000   0.050690041   -1.2340531      0.046883431   -1.1111836     -0.011609702  
   3834000   0.050916765   -1.2362734      0.046946657   -1.1130008     -0.0033541322 
   3835000   0.049602656   -1.23602        0.04743685    -1.1142271     -0.012617178  
   3836000   0.048931522   -1.235852       0.044589328   -1.1179127     -0.018427969  
   3837000   0.049905968   -1.2355761      0.04391044    -1.116855      -0.01961788   
   3838000   0.049306346   -1.234671       0.045780226   -1.114979      -0.017084711  
   3839000   0.049900755   -1.2351109      0.049535254   -1.1107728     -0.019936321  
   3840000   0.051703026   -1.2347201      0.047811649   -1.109404      -0.012958955  
   3841000   0.050406969   -1.2341285      0.04596486    -1.112602      -0.015287155  
   3842000   0.050825344   -1.2362096      0.047228439   -1.1127924     -0.013408562  
   3843000   0.05026559    -1.2349563      0.047792008   -1.1118145     -0.015051472  
   3844000   0.048900515   -1.2353453      0.046333491   -1.1157084     -0.012825337  
   3845000   0.047750095   -1.2346218      0.047152428   -1.1158905     -0.0044601371 
   3846000   0.050044934   -1.2349234      0.046770287   -1.1131342     -0.013683562  
   3847000   0.048525572   -1.2354955      0.045445947   -1.1173082     -0.013845329  
   3848000   0.048960655   -1.2354115      0.04745368    -1.1145642     -0.010867996  
   3849000   0.050208726   -1.2359644      0.047108903   -1.113591      -0.0060200584 
   3850000   0.049909422   -1.2358518      0.048155379   -1.1128806     -0.010507059  
   3851000   0.051553407   -1.2363866      0.045007877   -1.1140985     -0.0055190216 
   3852000   0.04854008    -1.2360913      0.045018649   -1.1183095     -0.006123808  
   3853000   0.050069216   -1.2349902      0.042907496   -1.1170273     -0.014597093  
   3854000   0.048806163   -1.2354702      0.046202938   -1.1161052     -0.0097861185 
   3855000   0.050607198   -1.2347118      0.046092207   -1.1127577     -0.0098394332 
   3856000   0.050786599   -1.2339916      0.045744774   -1.112116      -0.01567069   
   3857000   0.050945385   -1.234939       0.046091155   -1.1124791     -0.0064070752 
   3858000   0.050346157   -1.2345756      0.048376022   -1.1107291     -0.010924364  
   3859000   0.052281787   -1.2350318      0.046215991   -1.1104437     -0.00823543   
   3860000   0.051801181   -1.2350309      0.050108198   -1.107271      -0.010130516  
   3861000   0.051520983   -1.2343355      0.04644658    -1.1106574     -0.010681417  
   3862000   0.050394979   -1.2359943      0.048178544   -1.112272      -0.013091054  
   3863000   0.051017356   -1.2349911      0.046086211   -1.1124282     -0.010953383  
   3864000   0.051811687   -1.2366707      0.045359965   -1.1136434     -0.012663511  
   3865000   0.049860142   -1.235161       0.047095637   -1.1133234     -0.0093906955 
   3866000   0.050367381   -1.2341008      0.047586527   -1.111012      -0.017327656  
   3867000   0.050788815   -1.2345198      0.045912313   -1.1124734     -0.011225426  
   3868000   0.050928093   -1.237013       0.045305564   -1.1153646     -0.023819944  
   3869000   0.050798211   -1.2357424      0.046901285   -1.112693      -0.004845186  
   3870000   0.05215756    -1.2359885      0.044434421   -1.1133682     -0.013613309  
   3871000   0.049733319   -1.2345401      0.048534781   -1.1114534     -0.0089689638 
   3872000   0.050210087   -1.2375479      0.048289187   -1.1139922     -0.020036769  
   3873000   0.049791342   -1.234872       0.047172962   -1.1130602     -0.007857648  
   3874000   0.051397291   -1.2362377      0.048821858   -1.1103697     -0.013237662  
   3875000   0.050787781   -1.2336556      0.044470738   -1.1130523     -0.0087565562 
   3876000   0.051204846   -1.2334233      0.046037027   -1.1106285     -0.018420894  
   3877000   0.050291019   -1.2348326      0.047737689   -1.111707      -0.0087133618 
   3878000   0.050705805   -1.2352705      0.043972789   -1.115288      -0.0088550896 
   3879000   0.04934675    -1.2349841      0.047036431   -1.1139753     -0.014850616  
   3880000   0.049065237   -1.2347976      0.046089716   -1.1151575     -0.013343293  
   3881000   0.050466974   -1.2357006      0.046238156   -1.1138108     -0.0098340999 
   3882000   0.050189704   -1.2351762      0.047432071   -1.1125081     -0.015159221  
   3883000   0.052095976   -1.2350375      0.046266832   -1.1106771     -0.014676784  
   3884000   0.050351325   -1.2360152      0.047442858   -1.1130941     -0.016492487  
   3885000   0.048655225   -1.2350023      0.048346757   -1.1137198     -0.011233187  
   3886000   0.050829064   -1.2349824      0.046332368   -1.1124556     -0.014455858  
   3887000   0.050454437   -1.2345774      0.046229062   -1.1127155     -0.0090424407 
   3888000   0.051163108   -1.2342474      0.047145084   -1.1104072     -0.0066206957 
   3889000   0.052520336   -1.2349789      0.045426163   -1.110823      -0.0080056138 
   3890000   0.05188366    -1.2349257      0.046505392   -1.1106451     -0.008494333  
   3891000   0.051252823   -1.23589        0.04778232    -1.111278      -0.012191881  
   3892000   0.050993998   -1.2357805      0.048674715   -1.1106642      0.0013473508 
   3893000   0.051353054   -1.2361406      0.048622346   -1.1105384     -0.010815421  
   3894000   0.050988388   -1.2354632      0.048265346   -1.1107647     -0.021318869  
   3895000   0.050252716   -1.2356361      0.045994037   -1.1143117     -0.018197975  
   3896000   0.051025638   -1.2346644      0.049561111   -1.1086142     -0.015441361  
   3897000   0.05119834    -1.2355874      0.048766279   -1.1100732     -0.014489271  
   3898000   0.050585817   -1.2359795      0.048144767   -1.1120049     -0.018944328  
   3899000   0.051826995   -1.2360695      0.047834407   -1.1105448     -0.021553119  
   3900000   0.050692779   -1.23407        0.047856484   -1.1102234     -0.010561813  
   3901000   0.050149334   -1.2346084      0.047826983   -1.111606      -0.020715197  
   3902000   0.050773051   -1.2344103      0.045121108   -1.1131788     -0.011894438  
   3903000   0.049221135   -1.235937       0.046503416   -1.1156495     -0.01511753   
   3904000   0.047546884   -1.2346334      0.044128963   -1.1192301      0.00016891906
   3905000   0.047988527   -1.2347726      0.044653597   -1.1181826     -0.021172033  
   3906000   0.048775424   -1.2348785      0.046997906   -1.1147646     -0.0047358787 
   3907000   0.049501059   -1.2337893      0.045884045   -1.1137016     -0.015241073  
   3908000   0.050330981   -1.2359981      0.045439418   -1.1151109     -0.0055779495 
   3909000   0.049473631   -1.2371159      0.04723126    -1.1157221     -0.015344394  
   3910000   0.049949898   -1.2356127      0.04597702    -1.1147592     -0.010069181  
   3911000   0.049671611   -1.2356779      0.045583682   -1.1156349     -0.013689862  
   3912000   0.0502885     -1.236817       0.048297442   -1.1131355     -0.011673328  
   3913000   0.047619387   -1.2359703      0.048728934   -1.1158584     -0.010413809  
   3914000   0.051258556   -1.236641       0.047279527   -1.1125232     -0.0052743242 
   3915000   0.050127311   -1.2354308      0.045304191   -1.1149842     -0.017044127  
   3916000   0.049335427   -1.2361795      0.047409859   -1.1148143     -0.021655557  
   3917000   0.05017718    -1.2342509      0.04662818    -1.1124055     -0.014071359  
   3918000   0.0503091     -1.2357104      0.047489077   -1.1128063     -0.015785274  
   3919000   0.0512567     -1.2357387      0.044940212   -1.1139631     -0.0011500809 
   3920000   0.050444609   -1.235303       0.047075603   -1.1126093     -0.013167715  
   3921000   0.050041108   -1.2361075      0.044892497   -1.1162018     -0.013481239  
   3922000   0.049407698   -1.2363969      0.047527867   -1.1148053     -0.016054008  
   3923000   0.04990651    -1.2356262      0.049574182   -1.1112406     -0.016775929  
   3924000   0.051611337   -1.2363573      0.04555911    -1.1134311      0.00085635213
   3925000   0.050474411   -1.2361165      0.047303537   -1.1131502     -0.010342741  
   3926000   0.049906485   -1.2347062      0.04650502    -1.1133897     -0.011691594  
   3927000   0.050833677   -1.2351726      0.04766735    -1.1113039     -0.0036361686 
   3928000   0.050446955   -1.2355888      0.048189933   -1.1117773     -0.0089019431 
   3929000   0.051636333   -1.2365072      0.047910574   -1.1111921     -0.013226198  
   3930000   0.051226395   -1.2344133      0.046371177   -1.1112521     -0.011677909  
   3931000   0.050089335   -1.2340114      0.043856899   -1.115069      -0.0068685193 
   3932000   0.048876563   -1.2357152      0.048462659   -1.113985      -0.018517056  
   3933000   0.048243926   -1.2364914      0.04571708    -1.1184551      0.0015372365 
   3934000   0.049940651   -1.2374195      0.046893136   -1.1156637     -0.012654079  
   3935000   0.050305672   -1.2362445      0.047750821   -1.1130839     -0.0032360919 
   3936000   0.049542866   -1.2336467      0.045834452   -1.1135458     -0.0026614847 
   3937000   0.050671656   -1.2345941      0.048112186   -1.1105235     -0.010252217  
   3938000   0.052502692   -1.2356271      0.046199494   -1.1107244     -0.016348827  
   3939000   0.04909621    -1.2339124      0.047600292   -1.1127153     -0.013735368  
   3940000   0.050695518   -1.2345404      0.047410354   -1.1111358     -0.017249487  
   3941000   0.049964923   -1.2349958      0.045351707   -1.114745      -0.015914853  
   3942000   0.050903372   -1.2330717      0.04565964    -1.1111063     -0.0029864169 
   3943000   0.050776914   -1.2340873      0.048354049   -1.109617      -0.01290424   
   3944000   0.049209165   -1.2349184      0.046536201   -1.1146161     -0.00772622   
   3945000   0.050191168   -1.2349832      0.046038094   -1.1137069     -0.010520613  
   3946000   0.049303792   -1.2340557      0.046473226   -1.1136745     -0.0026277783 
   3947000   0.04885556    -1.2344026      0.046197977   -1.1149685     -0.0099804171 
   3948000   0.049721493   -1.2345756      0.046034737   -1.1140068     -0.0074276186 
   3949000   0.049412951   -1.2360965      0.047401294   -1.1146236     -0.010943715  
   3950000   0.049931253   -1.2340891      0.048305339   -1.1109352     -0.0070839829 
   3951000   0.051445781   -1.2342569      0.048130515   -1.1090075     -0.007780934  
   3952000   0.05048533    -1.2358215      0.046551386   -1.113591       0.0035349972 
   3953000   0.049780572   -1.2346429      0.046551485   -1.1134687     -0.0030069832 
   3954000   0.048742339   -1.2344556      0.046531688   -1.1148576     -0.013296546  
   3955000   0.0507733     -1.2347268      0.047768437   -1.1108475     -0.012456486  
   3956000   0.050988397   -1.2354192      0.048480668   -1.1105053     -0.0021800114 
   3957000   0.050503208   -1.234446       0.04654567    -1.1121944     -0.010531742  
   3958000   0.049306694   -1.2340927      0.046372405   -1.113808      -0.0056248272 
   3959000   0.049413983   -1.2355857      0.046507924   -1.1150046     -0.012949943  
   3960000   0.050976264   -1.2366264      0.04705036    -1.113161      -0.018305395  
   3961000   0.050258533   -1.2358801      0.045915179   -1.1146258     -0.012125659  
   3962000   0.049001387   -1.2359512      0.045028549   -1.117468      -0.018054635  
   3963000   0.048960764   -1.2357036      0.046018088   -1.1162918     -0.016397351  
   3964000   0.050887078   -1.2374532      0.047350172   -1.1138216     -0.015879453  
   3965000   0.04860436    -1.2342524      0.04562435    -1.1157686     -0.0082907768 
   3966000   0.050980944   -1.2362791      0.047096701   -1.1127604     -0.0029722882 
   3967000   0.048489032   -1.2364843      0.04637944    -1.1174183     -0.016666017  
   3968000   0.050600525   -1.2357794      0.047573033   -1.1123546     -0.0096829019 
   3969000   0.051804233   -1.235165       0.048031816   -1.109477      -0.012971515  
   3970000   0.051443072   -1.2350037      0.049361553   -1.1085273     -0.018341366  
   3971000   0.049621854   -1.2342175      0.047180734   -1.112652      -0.0077955101 
   3972000   0.051629521   -1.2362755      0.048842939   -1.1100382     -0.012828019  
   3973000   0.05072703    -1.2362504      0.048431599   -1.1117773     -0.013205102  
   3974000   0.049381808   -1.2361312      0.046829493   -1.1152768     -0.014161477  
   3975000   0.049112975   -1.2359532      0.046318109   -1.1160132     -0.01137031   
   3976000   0.050237025   -1.2351761      0.047597864   -1.1122713     -0.0088860774 
   3977000   0.050678181   -1.2330861      0.046598846   -1.110519      -0.014062796  
   3978000   0.050106979   -1.2334921      0.048873332   -1.1095068      0.0016686341 
   3979000   0.049893096   -1.2344962      0.047705161   -1.1119997     -0.017502759  
   3980000   0.050419408   -1.23499        0.047472395   -1.1119373     -0.011040528  
   3981000   0.049828718   -1.2354876      0.047782476   -1.1130103     -0.013108314  
   3982000   0.048640957   -1.2361466      0.048484847   -1.1147473     -0.013547849  
   3983000   0.049176048   -1.2358618      0.048714341   -1.113431      -0.010528846  
   3984000   0.04954055    -1.2352405      0.046544482   -1.1144332     -0.0094733312 
   3985000   0.04812602    -1.2350429      0.05030179    -1.1125987     -0.013798279  
   3986000   0.050803451   -1.232989       0.04580751    -1.1110254     -0.0044299793 
   3987000   0.049706831   -1.2358876      0.048903673   -1.1124718     -0.018624929  
   3988000   0.052684055   -1.2351237      0.04797463    -1.1081739     -0.024936653  
   3989000   0.050243786   -1.2349765      0.048422357   -1.1112371     -0.016496653  
   3990000   0.050777834   -1.2355549      0.047399087   -1.1120382     -0.019078237  
   3991000   0.049780173   -1.2343829      0.048297863   -1.1114629     -0.0078953909 
   3992000   0.049823822   -1.2361172      0.047027233   -1.1144024     -0.011860217  
   3993000   0.050799002   -1.235427       0.047594163   -1.1116835     -0.021621578  
   3994000   0.049371062   -1.2362206      0.04597372    -1.1162381     -0.020192073  
   3995000   0.051534582   -1.2365132      0.047674391   -1.1115868     -0.0073912053 
   3996000   0.051518214   -1.2357256      0.049326349   -1.1091718     -0.019957878  
   3997000   0.050403299   -1.2369088      0.049783606   -1.111569      -0.017451675  
   3998000   0.051514261   -1.2359822      0.048349782   -1.1104109     -0.02018917   
   3999000   0.051662161   -1.2346039      0.048945942   -1.1082147     -0.016675703  
   4000000   0.051970046   -1.2352814      0.048198597   -1.109178      -0.023669787  
Loop time of 1162.28 on 8 procs for 3500000 steps with 1550 atoms

Performance: 260179.153 tau/day, 3011.333 timesteps/s, 4.668 Matom-step/s
93.3% CPU use with 8 MPI tasks x 1 OpenMP threads

MPI task timing breakdown:
Section |  min time  |  avg time  |  max time  |%varavg| %total
---------------------------------------------------------------
Pair    | 143.24     | 190.79     | 266.96     | 306.6 | 16.42
Bond    | 32.215     | 38.425     | 45.6       |  87.1 |  3.31
Neigh   | 0.61206    | 0.61343    | 0.6146     |   0.1 |  0.05
Comm    | 127.02     | 210.64     | 263.86     | 328.7 | 18.12
Output  | 7.4566     | 7.6137     | 7.7285     |   3.4 |  0.66
Modify  | 702.41     | 703.58     | 704.7      |   2.7 | 60.53
Other   |            | 10.61      |            |       |  0.91

Nlocal:         193.75 ave         385 max          56 min
Histogram: 1 1 2 0 1 1 0 1 0 1
Nghost:        559.625 ave         713 max         454 min
Histogram: 2 2 0 1 0 0 1 1 0 1
Neighs:              0 ave           0 max           0 min
Histogram: 8 0 0 0 0 0 0 0 0 0
FullNghs:      6239.75 ave       15937 max        1263 min
Histogram: 1 2 1 1 2 0 0 0 0 1

Total # of neighbors = 49918
Ave neighs/atom = 32.205161
Ave special neighs/atom = 2.1612903
Neighbor list builds = 1367
Dangerous builds = 0

# Write data for deformation

write_restart ${Dir}/${file6_name}
write_restart /home/franvt/GitRepos/molDynLammps/polymericGels/gel-bonds-1/data/0.050.30.05500-2026-01-27-123757/${file6_name}
write_restart /home/franvt/GitRepos/molDynLammps/polymericGels/gel-bonds-1/data/0.050.30.05500-2026-01-27-123757/data.hydrogel
System init for write_restart ...
WARNING: Using a manybody potential with bonds/angles/dihedrals and special_bond exclusions (src/pair.cpp:250)
Hybrid pair style last /omp style table/omp
Last active /omp style is angle_style harmonic/omp
Total wall time: 0:21:44
