LAMMPS (22 Jul 2025)
OMP_NUM_THREADS environment is not set. Defaulting to 1 thread.
  using 1 OpenMP thread(s) per MPI task
package omp 0
using multi-threaded neighbor list subroutines
# Input Script of lammps for assembly simulation of polimeric network.
# Main code is based on: https://github.com/PipeB62/Hydrogel-Simulation
# Patchy particles are with bond style.

# Felipe Benavides modified by Fco. Vazquez

# Initialization
units lj
dimension 3
boundary p p p

# Styles of atoms and that stuff
atom_style full
bond_style harmonic
angle_style harmonic
pair_style hybrid/overlay zero 0.0 lj/cut/omp 1.12 table/omp linear 5000000 threebody/table

newton on

# Create simulaiton box
region simulation_box block -$L $L -$L $L -$L $L
region simulation_box block -9.796741 $L -$L $L -$L $L
region simulation_box block -9.796741 9.796741 -$L $L -$L $L
region simulation_box block -9.796741 9.796741 -9.796741 $L -$L $L
region simulation_box block -9.796741 9.796741 -9.796741 9.796741 -$L $L
region simulation_box block -9.796741 9.796741 -9.796741 9.796741 -9.796741 $L
region simulation_box block -9.796741 9.796741 -9.796741 9.796741 -9.796741 9.796741
# N-atom-types region-ID keyword value Is necesesary the extra/special/per/atom (# of special neighbors per atom)
create_box 4 simulation_box     bond/types 1     angle/types 2     extra/bond/per/atom 10     extra/angle/per/atom 6     extra/special/per/atom 10
Created orthogonal box = (-9.796741 -9.796741 -9.796741) to (9.796741 9.796741 9.796741)
  2 by 2 by 2 MPI processor grid

# Atom types
mass 1 1.0      # CL
mass 2 1.0      # MO
mass 3 0.1      # PA
mass 4 0.1      # PB

# Coefficients
include potential.in
# Script with the pair-wise interaction and bonds between particles

bond_coeff 1 100.0 0.45
angle_coeff 1 100.0 180
angle_coeff 2 100.0 109.4712
pair_coeff 1 3 zero 0.5
pair_coeff 1 4 zero 0.5
pair_coeff 2 3 zero 0.5
pair_coeff 2 4 zero 0.5
pair_coeff 3 3 zero 0.5
pair_coeff 1 1 lj/cut/omp 1.0 1.0 1.12
pair_coeff 2 2 lj/cut/omp 1.0 1.0 1.12
pair_coeff 1 2 lj/cut/omp 1.0 1.0 1.12
pair_coeff 3 4 table/omp sysFiles/pachTab.table POT 0.6 # sw/omp sysFiles/patchyPot.sw NULL NULL PA PB
Reading pair table potential file sysFiles/pachTab.table with DATE: 2024-07-08
WARNING: 7 of 1000000 force values in table POT are inconsistent with -dE/dr.
WARNING:  Should only be flagged at inflection points (src/pair_table.cpp:469)
pair_coeff 4 4 table/omp sysFiles/pachTab.table POT 0.6 # sw/omp sysFiles/patchyPot.sw NULL NULL PA PB
Reading pair table potential file sysFiles/pachTab.table with DATE: 2024-07-08
WARNING: 7 of 1000000 force values in table POT are inconsistent with -dE/dr.
WARNING:  Should only be flagged at inflection points (src/pair_table.cpp:469)
pair_coeff * * threebody/table swapMech.3b NULL NULL PA PB
pair_modify pair lj/cut/omp shift yes


# Molecules
include molecules.in
# Script with all molecule information and create groups for computes

# Read the molecule information
molecule CL sysFiles/molecule.patchy.CL
Read molecule template CL:
# Patchy Cross-Linker
  1 molecules
  0 fragments
  0 bodies
  5 atoms with max type 3
  4 bonds with max type 1
  6 angles with max type 2
  0 dihedrals with max type 0
  0 impropers with max type 0
molecule MO sysFiles/molecule.patchy.MO
Read molecule template MO:
# Patchy Monomer
  1 molecules
  0 fragments
  0 bodies
  3 atoms with max type 4
  2 bonds with max type 1
  1 angles with max type 1
  0 dihedrals with max type 0
  0 impropers with max type 0

# Introduce the molecules
# ID style args keyword arg
region spawn_box block -$L $L -$L $L -$L $L
region spawn_box block -9.796741 $L -$L $L -$L $L
region spawn_box block -9.796741 9.796741 -$L $L -$L $L
region spawn_box block -9.796741 9.796741 -9.796741 $L -$L $L
region spawn_box block -9.796741 9.796741 -9.796741 9.796741 -$L $L
region spawn_box block -9.796741 9.796741 -9.796741 9.796741 -9.796741 $L
region spawn_box block -9.796741 9.796741 -9.796741 9.796741 -9.796741 9.796741

# create_atoms type style args keyword values
# style_random: N seed region-ID
# keyword_mol: template-ID seed
# keyword_overlap: overlap value = only insert if at least this distance from all existing atoms
# keyword_maxtry: maxtry value = number of attempts to insert a particle before failure
create_atoms 0 random ${NCL} ${seed1} spawn_box mol CL ${seed1} overlap 1.0 maxtry 5000 #xls
create_atoms 0 random 25 ${seed1} spawn_box mol CL ${seed1} overlap 1.0 maxtry 5000 
create_atoms 0 random 25 3234 spawn_box mol CL ${seed1} overlap 1.0 maxtry 5000 
create_atoms 0 random 25 3234 spawn_box mol CL 3234 overlap 1.0 maxtry 5000 
Created 125 atoms
  using lattice units in orthogonal box = (-9.796741 -9.796741 -9.796741) to (9.796741 9.796741 9.796741)
  create_atoms CPU = 0.010 seconds
create_atoms 0 random ${NMO} ${seed2} spawn_box mol MO ${seed2} overlap 1.0 maxtry 5000 #mon
create_atoms 0 random 475 ${seed2} spawn_box mol MO ${seed2} overlap 1.0 maxtry 5000 
create_atoms 0 random 475 6321 spawn_box mol MO ${seed2} overlap 1.0 maxtry 5000 
create_atoms 0 random 475 6321 spawn_box mol MO 6321 overlap 1.0 maxtry 5000 
Created 1425 atoms
  using lattice units in orthogonal box = (-9.796741 -9.796741 -9.796741) to (9.796741 9.796741 9.796741)
  create_atoms CPU = 0.009 seconds

# Create patchy particles
group CrossLinker type 1 3
125 atoms in group CrossLinker
group Monomer type 2 4
1425 atoms in group Monomer
group Patches type 3 4
1050 atoms in group Patches
group CL type 1
25 atoms in group CL
group MO type 2
475 atoms in group MO
group PA type 3
100 atoms in group PA
group CM type 1 2
500 atoms in group CM

# Neighbor list
neighbor 1.8 bin # extra-distance style
#neigh_modify delay 0 every 1 check no
#neigh_modify exclude molecule/intra CrossLinker
#neigh_modify exclude molecule/intra Monomer

# COMPUTES

# Compute global kinetic and potential energy and temperature
compute t all temp
compute p all pressure t
compute ep all pe
compute ek all ke
variable eT equal etotal
variable eB equal ebond
variable eA equal eangle
variable eM equal emol
variable ec equal ecouple
variable eC equal econserve

# Potencial energy per pair-wise interaction
compute wcaPair all pair lj/cut/omp epair
compute patchPair all pair table/omp epair
compute swapPair all pair threebody/table epair

# Compute the pressure
compute press all pressure t ke virial
compute pressVirial all pressure t virial
compute pressVirialMod all pressure t pair bond angle

# Computes for the stress
compute cstress all stress/atom t ke pair bond angle
compute cstressVirial all stress/atom t virial
compute cstressVirialMod all stress/atom t pair bond angle
compute stress all reduce sum c_cstress[*]
compute stressVirial all reduce sum c_cstressVirial[*]
compute stressVirialMod all reduce sum c_cstressVirialMod[*]

# Displacement of the central particles
compute disp CM displace/atom
compute redDisp CM reduce ave c_disp[*] # All, because yes

# Get the number of central particles per cluster
compute clusters all aggregate/atom 0.6                             # Create the clusters
compute Nclpart CM chunk/atom c_clusters compress yes discard yes   # Get the number of clusters
compute clsize CM property/chunk Nclpart count                      # Counts the atoms in each chunk
compute idcl CM property/chunk Nclpart id                           # Get the ids of the clusters

# DUMPS and FIXES

thermo ${NsaveStress}
thermo 1000

# Save global energies and temperature
fix Energy all ave/time 1 ${Nsave} ${Nsave} c_t c_wcaPair c_patchPair c_swapPair c_ep c_ek v_eT v_ec v_eC c_p v_eB v_eA v_eM c_redDisp[*] file ${Dir}/${file1_name}
fix Energy all ave/time 1 1000 ${Nsave} c_t c_wcaPair c_patchPair c_swapPair c_ep c_ek v_eT v_ec v_eC c_p v_eB v_eA v_eM c_redDisp[*] file ${Dir}/${file1_name}
fix Energy all ave/time 1 1000 1000 c_t c_wcaPair c_patchPair c_swapPair c_ep c_ek v_eT v_ec v_eC c_p v_eB v_eA v_eM c_redDisp[*] file ${Dir}/${file1_name}
fix Energy all ave/time 1 1000 1000 c_t c_wcaPair c_patchPair c_swapPair c_ep c_ek v_eT v_ec v_eC c_p v_eB v_eA v_eM c_redDisp[*] file /home/franvt/GitRepos/molDynLammps/polymericGels/gel-bonds-1/data/0.050.30.05500-2026-01-20-121005/${file1_name}
fix Energy all ave/time 1 1000 1000 c_t c_wcaPair c_patchPair c_swapPair c_ep c_ek v_eT v_ec v_eC c_p v_eB v_eA v_eM c_redDisp[*] file /home/franvt/GitRepos/molDynLammps/polymericGels/gel-bonds-1/data/0.050.30.05500-2026-01-20-121005/system_assembly.fixf

# Save Pressure and Stress tensor
fix fixStress5 all ave/time 1 ${NsaveStress} ${NsaveStress} c_p c_press[*] c_pressVirial[*] c_pressVirialMod[*] c_stress[*] c_stressVirial[*] c_stressVirialMod[*] file ${Dir}/${file2_name}
fix fixStress5 all ave/time 1 1000 ${NsaveStress} c_p c_press[*] c_pressVirial[*] c_pressVirialMod[*] c_stress[*] c_stressVirial[*] c_stressVirialMod[*] file ${Dir}/${file2_name}
fix fixStress5 all ave/time 1 1000 1000 c_p c_press[*] c_pressVirial[*] c_pressVirialMod[*] c_stress[*] c_stressVirial[*] c_stressVirialMod[*] file ${Dir}/${file2_name}
fix fixStress5 all ave/time 1 1000 1000 c_p c_press[*] c_pressVirial[*] c_pressVirialMod[*] c_stress[*] c_stressVirial[*] c_stressVirialMod[*] file /home/franvt/GitRepos/molDynLammps/polymericGels/gel-bonds-1/data/0.050.30.05500-2026-01-20-121005/${file2_name}
fix fixStress5 all ave/time 1 1000 1000 c_p c_press[*] c_pressVirial[*] c_pressVirialMod[*] c_stress[*] c_stressVirial[*] c_stressVirialMod[*] file /home/franvt/GitRepos/molDynLammps/polymericGels/gel-bonds-1/data/0.050.30.05500-2026-01-20-121005/stress_assembly.fixf

# Save the global cluster information
fix 1 CM ave/time 1 1 ${Ndump} c_idcl c_clsize file ${Dir}/${file3_name} mode vector
fix 1 CM ave/time 1 1 1000 c_idcl c_clsize file ${Dir}/${file3_name} mode vector
fix 1 CM ave/time 1 1 1000 c_idcl c_clsize file /home/franvt/GitRepos/molDynLammps/polymericGels/gel-bonds-1/data/0.050.30.05500-2026-01-20-121005/${file3_name} mode vector
fix 1 CM ave/time 1 1 1000 c_idcl c_clsize file /home/franvt/GitRepos/molDynLammps/polymericGels/gel-bonds-1/data/0.050.30.05500-2026-01-20-121005/clust_assembly.fixf mode vector

# Save atom positions with cluster id
dump dumpID all custom ${Ndump} ${Dir}/traj/${file5_name} id mol c_clusters type x y z vx vy vz
dump dumpID all custom 1000 ${Dir}/traj/${file5_name} id mol c_clusters type x y z vx vy vz
dump dumpID all custom 1000 /home/franvt/GitRepos/molDynLammps/polymericGels/gel-bonds-1/data/0.050.30.05500-2026-01-20-121005/traj/${file5_name} id mol c_clusters type x y z vx vy vz
dump dumpID all custom 1000 /home/franvt/GitRepos/molDynLammps/polymericGels/gel-bonds-1/data/0.050.30.05500-2026-01-20-121005/traj/traj_assembly.*.dumpf id mol c_clusters type x y z vx vy vz
dump_modify dumpID pbc yes # remap atoms via periodic boundary conditions

# RUN SIMULATION

# Brownian Dynamics using Langevin Thermostat

timestep ${tstep}
timestep 0.001

fix VelVerlet all nve # Use Velocity Verlet integrator

# First elevate the temperature
fix ThermoLng all langevin 0.0 ${temp} ${damp} ${seed3} # Brownian Dynamics: langevin + nve
fix ThermoLng all langevin 0.0 0.05 ${damp} ${seed3} 
fix ThermoLng all langevin 0.0 0.05 1 ${seed3} 
fix ThermoLng all langevin 0.0 0.05 1 2010 
run ${stepsheat}
run 500000
WARNING: Using a manybody potential with bonds/angles/dihedrals and special_bond exclusions (src/pair.cpp:250)
Hybrid pair style last /omp style table/omp
Last active /omp style is angle_style harmonic/omp
Neighbor list info ...
  update: every = 1 steps, delay = 0 steps, check = yes
  max neighbors/atom: 2000, page size: 100000
  master list distance cutoff = 2.92
  ghost atom cutoff = 2.92
  binsize = 1.46, bins = 14 14 14
  7 neighbor lists, perpetual/occasional/extra = 6 1 0
  (1) pair zero, perpetual, skip from (7)
      attributes: half, newton on, omp
      pair build: skip/omp
      stencil: none
      bin: none
  (2) pair lj/cut/omp, perpetual, skip from (7)
      attributes: half, newton on, omp
      pair build: skip/omp
      stencil: none
      bin: none
  (3) pair table/omp, perpetual, skip from (7)
      attributes: half, newton on, omp
      pair build: skip/omp
      stencil: none
      bin: none
  (4) pair threebody/table, perpetual, skip from (6)
      attributes: full, newton on, omp
      pair build: skip/omp
      stencil: none
      bin: none
  (5) compute aggregate/atom, occasional, copy from (6)
      attributes: full, newton on, omp
      pair build: copy
      stencil: none
      bin: none
  (6) neighbor class addition, perpetual
      attributes: full, newton on, omp
      pair build: full/bin/omp
      stencil: full/bin/3d
      bin: standard
  (7) neighbor class addition, perpetual, half/full from (6)
      attributes: half, newton on, omp
      pair build: halffull/newton/omp
      stencil: none
      bin: none
Per MPI rank memory allocation (min/avg/max) = 19.65 | 19.65 | 19.65 Mbytes
   Step          Temp          E_pair         E_mol          TotEng         Press     
         0   0              0.00041490155  0.15480456     0.15521947    -0.21361809   
      1000   0.017876509    0              0.030955285    0.057752749   -0.0873399    
      2000   0.013939615    0              0.00033202702  0.02122796    -0.0029197643 
      3000   0.0033590418   0              0.0030852648   0.0081205769   0.026995229  
      4000   0.00036701341  0              0.0029466633   0.0034968283   0.025430898  
      5000   0.00064137453  0              0.00098857199  0.0019500131   0.013048493  
      6000   0.00077718336  0              0.00035972533  0.0015247483   0.002450137  
      7000   0.00069096179  0              0.00045140299  0.001487177   -0.002543474  
      8000   0.00074537223  0              0.00051913047  0.0016364675  -0.0033111761 
      9000   0.00081222975  0              0.00056484854  0.0017824071  -0.0021627654 
     10000   0.00091783603  0              0.00062536606  0.0020012319  -0.00054981401
     11000   0.0010404822  -5.1616387e-08  0.00067772054  0.0022373853   8.6787916e-05
     12000   0.0017075752  -0.0031917957   0.0013647913   0.00073270586  1.5088899e-06
     13000   0.0013610207  -0.0031577185   0.00097887038 -0.00013863421  0.00071969075
     14000   0.0013837385  -0.0032101766   0.00095410395 -0.00018180397  0.00035009515
     15000   0.0014498331  -0.0032167593   0.00094509228 -9.8320422e-05  0.00050379217
     16000   0.0023270255  -0.0062812656   0.0016514918  -0.0011414875   0.00042509826
     17000   0.0019621263  -0.0064488992   0.0012938743  -0.0022137343   0.00020344107
     18000   0.0017776316  -0.0064479888   0.0013463368  -0.0024369249   1.9388709e-05
     19000   0.0021486198  -0.0080026565   0.0012919477  -0.0034898584  -0.00026999954
     20000   0.0033224298  -0.014227531    0.0027333614  -0.0065137399  -0.00066881483
     21000   0.0026164039  -0.014351049    0.0017232274  -0.008705748    0.0011990056 
     22000   0.0032211317  -0.016072968    0.001766278   -0.0094781092   0.00076982657
     23000   0.0028791438  -0.017501336    0.0016803426  -0.011505064    0.0005898143 
     24000   0.0025939329  -0.01768488     0.0017199919  -0.012076499    0.0005685485 
     25000   0.0026590794  -0.018981223    0.0020909505  -0.012904226    0.00012910721
     26000   0.0027407821  -0.020575212    0.0023201038  -0.014146588   -0.00083482625
     27000   0.0029243936  -0.022285808    0.0025722619  -0.015329786   -5.0902212e-05
     28000   0.0028759949  -0.022552788    0.0019226872  -0.016318891    0.0002095556 
     29000   0.0031062589  -0.024131152    0.0024169682  -0.017057802   -0.00021292321
     30000   0.0038338101  -0.02758193     0.0031578934  -0.018677031   -0.0015389068 
     31000   0.0034407965  -0.028846876    0.0026171115  -0.021071899    0.00046325488
     32000   0.0041823666  -0.033557147    0.0035684586  -0.023719186   -0.00051053928
     33000   0.0038345295  -0.033824753    0.0025261327  -0.025550536    0.00025222466
     34000   0.0037636956  -0.035338016    0.0027032356  -0.02699288     0.0010476148 
     35000   0.0035737822  -0.035406169    0.0024698829  -0.027579072    0.00020027171
     36000   0.0054304688  -0.044511573    0.0040592351  -0.03231189     0.00027552271
     37000   0.0047832028  -0.047818923    0.0034554703  -0.037193277    0.00040679468
     38000   0.0046062334  -0.049523565    0.0031198442  -0.039498829   -0.0012996406 
     39000   0.0040361925  -0.049879225    0.0030027455  -0.040826097    0.00063223573
     40000   0.0047345799  -0.054506036    0.0036771626  -0.043731585    0.00014774488
     41000   0.0047317295  -0.057638126    0.0036595893  -0.046885521    0.00035095278
     42000   0.0048045281  -0.060911061    0.0037018537  -0.050007065   -0.00061953081
     43000   0.0049028446  -0.062139428    0.0032521543  -0.051537751   -2.7651165e-05
     44000   0.0057895474  -0.067515244    0.003780909   -0.055055616    0.00084588548
     45000   0.0047018924  -0.067525183    0.0033911253  -0.057085769    0.0014381187 
     46000   0.0050994446  -0.069088535    0.0032916939  -0.058152609   -0.00031411964
     47000   0.0055660251  -0.070844672    0.0037078326  -0.058793188    0.0013633416 
     48000   0.0060595579  -0.074020194    0.0040233564  -0.060913364    0.0019702637 
     49000   0.0074302921  -0.082912176    0.0050075799  -0.066766349    0.00024957522
     50000   0.0068878686  -0.087290852    0.0050064448  -0.071959269   -0.00018082634
     51000   0.0060664672  -0.090872845    0.0050490808  -0.076729934   -0.00047430372
     52000   0.0063853669  -0.094017562    0.0042921412  -0.08015355     0.0011170737 
     53000   0.0062403833  -0.097626803    0.0048805506  -0.083391716    0.00052970181
     54000   0.0066194386  -0.100528       0.0043465111  -0.086258736   -0.0015807026 
     55000   0.0070180963  -0.10589075     0.0047719443  -0.090598451    0.0012002955 
     56000   0.0065743397  -0.10886142     0.0041825601  -0.094823713   -0.00016180918
     57000   0.0057485313  -0.10941481     0.004278871   -0.096518709    0.00048136054
     58000   0.0062345792  -0.11108711     0.0041873307  -0.097553945    0.00049062519
     59000   0.0069459266  -0.11648211     0.0050346568  -0.10103529     6.3251345e-05
     60000   0.0073424225  -0.12223951     0.0051624658  -0.10607051     0.00058517362
     61000   0.0072293563  -0.12627161     0.0047183224  -0.11071625    -0.00058307832
     62000   0.0067830187  -0.12986384     0.0050017997  -0.11469407     0.0013560055 
     63000   0.0080538942  -0.13583374     0.005541039   -0.11821965     0.00047055811
     64000   0.0069640884  -0.13742181     0.0055132419  -0.12146917     9.6667454e-05
     65000   0.0071243883  -0.13997546     0.0055278973  -0.12376787    -0.00071782079
     66000   0.0077482959  -0.1443734      0.0057457106  -0.12701274     0.00010247383
     67000   0.0081443202  -0.14609248     0.0060951361  -0.12778875     0.0081446816 
     68000   0.0083577595  -0.15049501     0.0055450815  -0.13242137     0.0039292569 
     69000   0.0075904495  -0.15256283     0.0051855903  -0.13599891     0.00078800718
     70000   0.0080417746  -0.15589202     0.0055097832  -0.13832736     0.001532814  
     71000   0.0078298869  -0.15885221     0.0053334466  -0.14178151     0.0012875085 
     72000   0.0082052323  -0.16328577     0.0065721592  -0.1444137      0.00076562874
     73000   0.0094493166  -0.17048847     0.0060983012  -0.15022534     0.0012691005 
     74000   0.009063447   -0.17473621     0.0062001314  -0.15494968     0.0023798284 
     75000   0.009042606   -0.17871094     0.0070737271  -0.15808206     0.0017944177 
     76000   0.0081528666  -0.17924193     0.0055310033  -0.16148951     0.0013724409 
     77000   0.0083823494  -0.18240867     0.0061667891  -0.16367646     0.00059036668
     78000   0.0089504687  -0.18720224     0.0063240531  -0.16746114    -4.924315e-05 
     79000   0.0085588371  -0.19045439     0.0067365584  -0.17088785    -0.00054050694
     80000   0.0088455185  -0.19384543     0.0069784152  -0.17360729    -0.00026131514
     81000   0.0080731171  -0.19399797     0.0058624665  -0.17603364     0.00043158439
     82000   0.0094052286  -0.19863621     0.0064851619  -0.17805231    -8.9278368e-05
     83000   0.0084219147  -0.19880179     0.0063311041  -0.17984596     0.0016785918 
     84000   0.009867637   -0.20322084     0.0068580392  -0.18157089     0.0003642384 
     85000   0.0093918679  -0.20476112     0.0064319742  -0.18425043     0.0026960446 
     86000   0.009102588   -0.20666698     0.0063029564  -0.18671895     0.0015144878 
     87000   0.01079528    -0.21273535     0.0078149681  -0.1887379      0.0001176948 
     88000   0.010158292   -0.21506948     0.0064944953  -0.19334738     0.0013820333 
     89000   0.00901004    -0.21491784     0.0062286297  -0.19518287     0.00081346517
     90000   0.0094755791  -0.21789942     0.0068221966  -0.19687302     0.00054596862
     91000   0.0093433658  -0.21811749     0.0063180686  -0.19779342     0.0005033066 
     92000   0.010578787   -0.22118214     0.0068635882  -0.19846061    -0.0015561692 
     93000   0.010389738   -0.22480624     0.0074981163  -0.20173357     0.0016124978 
     94000   0.010843145   -0.22903079     0.0078517753  -0.20492479    -0.00062757761
     95000   0.010970739   -0.23234472     0.0074789014  -0.20842033     0.0014218522 
     96000   0.010693976   -0.23787354     0.0082191707  -0.21362375     0.0013926565 
     97000   0.0107259     -0.2413234      0.0082942372  -0.21695069    -0.0020152405 
     98000   0.010504725   -0.24289347     0.0082892083  -0.21885734     0.002900391  
     99000   0.01028091    -0.24448211     0.007020224   -0.22205047     0.0013689527 
    100000   0.011089909   -0.24774431     0.0073377531  -0.22378242     0.0045829245 
    101000   0.011083582   -0.25208761     0.0079738699  -0.22749909    -0.0011286778 
    102000   0.011524492   -0.25754247     0.0075025029  -0.23276438     0.0012271187 
    103000   0.011639134   -0.2630965      0.0089000986  -0.23674897     0.0015039603 
    104000   0.011140479   -0.26646209     0.0084754635  -0.24128669     0.0036347877 
    105000   0.011798111   -0.26867151     0.0080760483  -0.24290972     0.0020310975 
    106000   0.012061172   -0.27302359     0.008467132   -0.24647637     0.0021186521 
    107000   0.011943266   -0.27796529     0.0088236057  -0.25123835     0.00020340863
    108000   0.01200629    -0.28119203     0.0087291004  -0.25446511     0.00053146064
    109000   0.012740315   -0.28523483     0.0082344881  -0.2579022      0.0020242901 
    110000   0.012041804   -0.28708174     0.0082991897  -0.2607315     -0.00076873651
    111000   0.012813861   -0.29071298     0.0089629066  -0.26254168    -9.536309e-06 
    112000   0.011756885   -0.29067032     0.0086490802  -0.26439729     0.0017184609 
    113000   0.012276497   -0.29369748     0.0082106348  -0.26708398     0.0021657644 
    114000   0.012970015   -0.29648649     0.0084103918  -0.26863363     0.0007869583 
    115000   0.013246886   -0.30002938     0.0089776487  -0.27119422     0.00044401915
    116000   0.013785433   -0.30433937     0.010583401   -0.27309116     0.00013681946
    117000   0.014320537   -0.30885445     0.010820012   -0.2765675      0.0026913373 
    118000   0.01343254    -0.3120563      0.0096110821  -0.28230941    -0.0025344744 
    119000   0.013073557   -0.31663423     0.010444852   -0.28659169    -0.0018114484 
    120000   0.013433435   -0.32048745     0.0099254809  -0.29042482    -0.0019711665 
    121000   0.013372513   -0.32392668     0.0091853908  -0.29469546     0.00079573657
    122000   0.013266335   -0.32715712     0.009009068   -0.29826138    -0.00072347302
    123000   0.014525645   -0.33127828     0.0094743515  -0.30002951     0.0013837543 
    124000   0.014736781   -0.33938004     0.0098823794  -0.30740675    -0.0011411114 
    125000   0.013712166   -0.34447567     0.010069231   -0.31385146     0.0039325645 
    126000   0.014331421   -0.34903449     0.009509112   -0.31804212     0.0031825196 
    127000   0.014350896   -0.35343291     0.010208227   -0.32171223     0.0022897144 
    128000   0.015360687   -0.35585036     0.011187502   -0.32163669     0.0018773958 
    129000   0.01392862    -0.35898901     0.010693776   -0.32741578    -0.002461436  
    130000   0.014066708   -0.35975938     0.0097211591  -0.32895177     0.0011970323 
    131000   0.014705931   -0.36177177     0.010215308   -0.3295118      8.5411108e-05
    132000   0.015308491   -0.36481214     0.010450121   -0.33141409    -0.0021126792 
    133000   0.014934681   -0.36762003     0.010254056   -0.3349784     -0.00095017838
    134000   0.01411952    -0.36991847     0.010251462   -0.33850139    -4.3623945e-05
    135000   0.015938271   -0.37477082     0.01007271    -0.34080613    -0.00024857076
    136000   0.016987352   -0.37951852     0.010894701   -0.34315923    -0.0022702506 
    137000   0.016419735   -0.38607014     0.012991498   -0.34846493     0.0016850652 
    138000   0.014729492   -0.3867617      0.010149238   -0.35453247     0.00057602106
    139000   0.014649803   -0.38710851     0.0094742026  -0.35567378     0.00013567893
    140000   0.014068591   -0.38871457     0.0094614593  -0.35816384     6.8401064e-05
    141000   0.015044127   -0.39283673     0.010734831   -0.35955027    -0.0022549437 
    142000   0.01439054    -0.39338412     0.010194385   -0.36161785     0.00084708241
    143000   0.015212984   -0.39635297     0.010292085   -0.36325613     0.0018709717 
    144000   0.015231085   -0.39801531     0.010715897   -0.36446752     0.0004575971 
    145000   0.015827493   -0.40143731     0.010370745   -0.36734065     0.0009749314 
    146000   0.015007116   -0.40233169     0.010354319   -0.36948122     0.0026767926 
    147000   0.015780168   -0.40587696     0.011465088   -0.37075689     0.00069149527
    148000   0.015830856   -0.4102167      0.010877798   -0.37560794     0.0023574911 
    149000   0.015600941   -0.41225383     0.011094879   -0.37777264    -0.00050831416
    150000   0.015244127   -0.41224871     0.010337781   -0.37905949    -0.0029498586 
    151000   0.015721029   -0.41625568     0.012177391   -0.38051196    -0.000488955  
    152000   0.01607691    -0.41780345     0.010976813   -0.38272683     0.0021045752 
    153000   0.01670412    -0.42094759     0.011560906   -0.38434667     0.004485771  
    154000   0.015849336   -0.42325188     0.011446051   -0.38804716     0.0029989265 
    155000   0.015953647   -0.4233121      0.01127172    -0.38812535     2.5259008e-05
    156000   0.015125124   -0.42331323     0.010929175   -0.38971101    -0.0041451955 
    157000   0.015726977   -0.42483273     0.011519406   -0.38973808     0.0019057152 
    158000   0.017239801   -0.42988768     0.01271497    -0.39132969    -0.0010288756 
    159000   0.017245554   -0.43193567     0.011948571   -0.39413546     0.0023162936 
    160000   0.016797902   -0.434993       0.01309499    -0.39671742     0.0019177966 
    161000   0.020008722   -0.43863933     0.012490389   -0.39615522     0.0014472019 
    162000   0.017126583   -0.44087899     0.012576651   -0.40262904     0.0027153267 
    163000   0.016812215   -0.44245977     0.012216779   -0.40504093    -0.00063741419
    164000   0.01702202    -0.44563824     0.012275327   -0.40784635     0.0025815499 
    165000   0.017860747   -0.45198632     0.013077865   -0.41213462     0.0045336745 
    166000   0.01773143    -0.45350103     0.01274475    -0.41417629     0.00030250583
    167000   0.017928109   -0.45494441     0.012013632   -0.41605597     0.0028262395 
    168000   0.018065358   -0.45855387     0.012834085   -0.41863923     0.004851913  
    169000   0.016930189   -0.4597768      0.012499664   -0.42189824     0.001909531  
    170000   0.018192107   -0.46177033     0.013127645   -0.42137213    -0.0018928106 
    171000   0.018940587   -0.4662959      0.013437279   -0.42446607     0.0019381396 
    172000   0.018372355   -0.4680055      0.013208623   -0.42725612    -0.0019571509 
    173000   0.018547107   -0.47146851     0.013516101   -0.43014969     0.0027525997 
    174000   0.017698192   -0.47158854     0.012018723   -0.43303965     0.0031744691 
    175000   0.019387127   -0.47792294     0.014377298   -0.43448372     0.0028708866 
    176000   0.019694855   -0.4789704      0.013395109   -0.43605207     0.0057906553 
    177000   0.018536926   -0.48008462     0.012014156   -0.44028301     0.0036223486 
    178000   0.018275406   -0.48115481     0.012992001   -0.44076738     0.00050744373
    179000   0.017953346   -0.48215763     0.012980553   -0.44226443     0.001058049  
    180000   0.018528478   -0.48277962     0.013025221   -0.44197961     0.0023584859 
    181000   0.019606836   -0.48600067     0.01387127    -0.44273812     0.00041559751
    182000   0.018522541   -0.48643237     0.01313826    -0.44552822     0.0023334678 
    183000   0.01824477    -0.48649656     0.012858991   -0.44628807     0.0020542889 
    184000   0.018934791   -0.48750269     0.013174701   -0.44594413     0.002788003  
    185000   0.01833771    -0.48754938     0.01294824    -0.44711232     0.0034386122 
    186000   0.018845755   -0.49073101     0.013188055   -0.44929256     0.00029614735
    187000   0.018962622   -0.4909894      0.013223568   -0.44934025    -0.0030717578 
    188000   0.020097599   -0.49340044     0.014114642   -0.44915885    -0.0003699613 
    189000   0.021208793   -0.49845641     0.015713552   -0.45095019     0.0017150638 
    190000   0.021806931   -0.5026792      0.015729764   -0.45426015    -0.0026022631 
    191000   0.020484991   -0.50217455     0.014244681   -0.4572222      0.0026876469 
    192000   0.019882779   -0.50096989     0.013451102   -0.45771386    -0.0012634159 
    193000   0.020589101   -0.50015341     0.014052116   -0.45523757     0.0010788361 
    194000   0.021435905   -0.50469521     0.014064643   -0.45849746     0.0017387477 
    195000   0.020175616   -0.50502451     0.014049623   -0.46073099    -0.00083365336
    196000   0.020020819   -0.50579835     0.014342858   -0.46144364     0.0064970628 
    197000   0.020607282   -0.50834894     0.014614105   -0.46284386     0.0029702638 
    198000   0.021297639   -0.51205194     0.015434753   -0.46469133     0.0026109105 
    199000   0.021110877   -0.51567281     0.015340596   -0.46868633    -7.8572001e-05
    200000   0.020458224   -0.51652586     0.014164725   -0.4716936     -0.0019661583 
    201000   0.020903007   -0.51683515     0.014106042   -0.47139482     0.00040788794
    202000   0.02218846    -0.52074569     0.015279644   -0.47220482    -0.00091819466
    203000   0.021888217   -0.52210985     0.015465354   -0.47383335     0.0053703775 
    204000   0.021598829   -0.52378622     0.014903361   -0.47650552     0.0052935656 
    205000   0.021185696   -0.52519381     0.015646473   -0.47778929     0.0056261787 
    206000   0.021939079   -0.52836498     0.016254268   -0.47922333     0.0046973521 
    207000   0.020945429   -0.52828649     0.01509721    -0.4817914      0.0077858914 
    208000   0.022291734   -0.52790064     0.014687097   -0.47979751     0.011587503  
    209000   0.022653505   -0.52977395     0.015141595   -0.48067402     0.013981722  
    210000   0.021785326   -0.52955119     0.01524789    -0.4816464      0.0069422112 
    211000   0.021421366   -0.53268406     0.015856127   -0.48471661     0.0037754357 
    212000   0.022767092   -0.53590849     0.015007232   -0.48677265     0.00066078332
    213000   0.021980532   -0.53580418     0.015606327   -0.48724833     0.0003413025 
    214000   0.0224336     -0.53915001     0.014842398   -0.49067892     0.0028153615 
    215000   0.021815251   -0.53913544     0.015701802   -0.49073188     0.0045630387 
    216000   0.022406133   -0.54075733     0.015516405   -0.49165341    -0.00065997718
    217000   0.02235784    -0.54095409     0.0148895     -0.49254947    -0.0034578426 
    218000   0.021258666   -0.54079728     0.015136689   -0.49379316    -0.0010626734 
    219000   0.02254941    -0.54259486     0.01547526    -0.4933173     -0.00051703906
    220000   0.023662171   -0.54383052     0.01504459    -0.49331557     0.0010490322 
    221000   0.023753187   -0.54542211     0.015446956   -0.49436836     8.4940016e-05
    222000   0.022968379   -0.54688984     0.016678967   -0.49578053     0.0054372655 
    223000   0.023839343   -0.55215523     0.017847016   -0.49857227     0.0047844957 
    224000   0.024252577   -0.55412957     0.017613198   -0.50016098     0.0061022494 
    225000   0.023860824   -0.55670837     0.017643468   -0.50329676     0.0035774851 
    226000   0.024190348   -0.55897125     0.016277042   -0.50643209     0.0016828411 
    227000   0.023449644   -0.55841281     0.016750274   -0.50651076     0.0035773018 
    228000   0.023859288   -0.56025916     0.015434439   -0.50905888     0.0035475204 
    229000   0.024063174   -0.56214271     0.015888033   -0.5101832      0.0094275973 
    230000   0.02350723    -0.56608334     0.017618056   -0.51322719     0.0073516997 
    231000   0.02450252    -0.56899331     0.017798826   -0.51446441    -0.00031246294
    232000   0.0243121     -0.5695984      0.017036154   -0.51611762     0.0077131359 
    233000   0.024877517   -0.57368569     0.017737068   -0.51865642     0.0096491419 
    234000   0.024357262   -0.57437245     0.016384593   -0.52147554     0.0047750963 
    235000   0.024443843   -0.5768518      0.017980121   -0.52222957     0.012556445  
    236000   0.025417146   -0.58011877     0.016176262   -0.52584139     0.002412212  
    237000   0.02358892    -0.5803451      0.016927009   -0.52805754     0.0046299896 
    238000   0.024913252   -0.58177489     0.016874291   -0.52755483     0.0052857516 
    239000   0.024105663   -0.58202007     0.017752753   -0.52813215     0.0045995616 
    240000   0.024651892   -0.58357243     0.01749305    -0.5291254     -0.0038150979 
    241000   0.024910398   -0.58358614     0.017231177   -0.52901347    -0.0012501926 
    242000   0.025401658   -0.5858028      0.017611169   -0.53011373     0.00093473907
    243000   0.025173991   -0.58577472     0.017048102   -0.53098999    -0.0013168746 
    244000   0.025820036   -0.58706982     0.018057504   -0.53030725    -0.00068364051
    245000   0.025154538   -0.5871806      0.017764097   -0.53170904     0.0049889807 
    246000   0.026246455   -0.58455972     0.017696994   -0.52751844     0.0061074663 
    247000   0.026233513   -0.58479797     0.01763575    -0.52783734     0.0048750574 
    248000   0.026584107   -0.58779098     0.018269447   -0.52967109     0.0026840946 
    249000   0.024933695   -0.58782195     0.017678813   -0.53276672     0.0014694973 
    250000   0.026278964   -0.59058054     0.017723082   -0.53346444     0.0082208511 
    251000   0.02515014    -0.59107421     0.017398358   -0.53597498    -0.0032837311 
    252000   0.026258784   -0.59144207     0.017436634   -0.53464267     0.00113551   
    253000   0.026558507   -0.59235329     0.0182741     -0.53426713     0.0040312047 
    254000   0.025365369   -0.59218673     0.01834461    -0.53581862     0.0033853427 
    255000   0.025493202   -0.5926456      0.017126385   -0.53730408    -0.0016073318 
    256000   0.025938732   -0.59232979     0.017705085   -0.53574171     0.0033030867 
    257000   0.025546301   -0.59276134     0.019160374   -0.53530624     0.0054028228 
    258000   0.027310211   -0.59697364     0.018224018   -0.53781074     0.00052482495
    259000   0.026197394   -0.59753529     0.019412134   -0.53885242     0.0022564347 
    260000   0.026855999   -0.59868491     0.019074468   -0.53935244     0.0071473355 
    261000   0.026644292   -0.60091575     0.019182748   -0.54179235     0.0039198487 
    262000   0.025846825   -0.60152324     0.017443031   -0.54533499     0.0050206095 
    263000   0.025695043   -0.60114578     0.017718628   -0.54490945     0.0006313767 
    264000   0.025725059   -0.60219109     0.019385972   -0.54424243     0.005351853  
    265000   0.028691739   -0.60756946     0.020314942   -0.54424467     0.011909132  
    266000   0.029383314   -0.60997264     0.019504006   -0.5464221      0.0075269101 
    267000   0.027992502   -0.61103766     0.019981471   -0.54909453     0.0013340492 
    268000   0.027887486   -0.61142642     0.018801215   -0.55082097     0.00013288765
    269000   0.028282332   -0.61288872     0.019904091   -0.5505885      0.0034412148 
    270000   0.028759127   -0.61551784     0.020005765   -0.55240122     0.0089257098 
    271000   0.028376494   -0.61617401     0.020257149   -0.55337958    -0.0031678212 
    272000   0.027053269   -0.61588054     0.019290978   -0.55603584     0.0053514134 
    273000   0.027312312   -0.61601031     0.018246127   -0.55682214    -0.0014257238 
    274000   0.027615318   -0.6177464      0.019119551   -0.55723059    -0.0007428524 
    275000   0.027284082   -0.61770635     0.01983297    -0.55697366     0.0008587531 
    276000   0.027014546   -0.61827327     0.020213664   -0.55756393     0.00015203266
    277000   0.029345333   -0.62149339     0.020301341   -0.55720245     0.0019308211 
    278000   0.028591961   -0.62147517     0.020623388   -0.55799151    -0.0017931893 
    279000   0.02902651    -0.62211108     0.020866028   -0.55773338     0.0034212122 
    280000   0.029019728   -0.62474628     0.019565124   -0.56167964     0.0050901249 
    281000   0.030580153   -0.62623347     0.020752007   -0.55964083    -0.000833107  
    282000   0.029586716   -0.62825814     0.020548239   -0.56335846     0.0012819791 
    283000   0.029570268   -0.6278933      0.019087831   -0.56447868     0.0065928095 
    284000   0.028145069   -0.62819202     0.019536308   -0.56646535     0.002347875  
    285000   0.029788212   -0.63072347     0.019515227   -0.56655476     0.0065108199 
    286000   0.029326434   -0.63273713     0.021804895   -0.56697096     0.0053923867 
    287000   0.030140145   -0.63563252     0.021221593   -0.56922987     0.0038853966 
    288000   0.029835717   -0.63703507     0.020634329   -0.57167604     0.0028066361 
    289000   0.029931388   -0.63968816     0.02081625    -0.57400379     0.0087184801 
    290000   0.029160352   -0.64018083     0.021502148   -0.57496637     0.0074485388 
    291000   0.029111425   -0.6408223      0.020023329   -0.57716001    -0.0031921335 
    292000   0.029287375   -0.6400739      0.021211741   -0.57495944     0.0080518932 
    293000   0.029748841   -0.64010787     0.020156435   -0.57535696     0.0047562667 
    294000   0.029858335   -0.64000406     0.021303684   -0.57394177     0.0036939445 
    295000   0.029705218   -0.63987489     0.020998658   -0.57434716     0.0068652734 
    296000   0.028810587   -0.63930544     0.020872921   -0.57524452     0.0041993864 
    297000   0.031402189   -0.64133931     0.022380084   -0.57188633     0.0048181517 
    298000   0.030020264   -0.64190861     0.022618598   -0.57428867     0.0035684597 
    299000   0.030818082   -0.64238904     0.021357874   -0.57483386     0.01348582   
    300000   0.031404028   -0.64531891     0.021974421   -0.57626884     0.0096338522 
    301000   0.031258137   -0.64643638     0.022248821   -0.57733061     0.0061727698 
    302000   0.029753082   -0.64668376     0.022028156   -0.58005478     0.0048246207 
    303000   0.032606151   -0.64916386     0.021977772   -0.57830842    -5.607823e-05 
    304000   0.031403427   -0.65075556     0.022233693   -0.58144711     0.0077319198 
    305000   0.032944049   -0.65189849     0.024054494   -0.57845981     0.0058080863 
    306000   0.032329405   -0.65427179     0.022605641   -0.58320333     0.0017539661 
    307000   0.032120385   -0.6553055      0.022291887   -0.58486412     0.011553936  
    308000   0.031452095   -0.65454276     0.021739507   -0.58565555    -0.003279276  
    309000   0.031381444   -0.65662187     0.022170852   -0.58740922     0.0073229926 
    310000   0.031388364   -0.65567439     0.022145702   -0.58647651     0.014503643  
    311000   0.032362792   -0.65738988     0.022320321   -0.58655669     0.0028022203 
    312000   0.031152516   -0.65783171     0.02248851    -0.58864457     0.0059939618 
    313000   0.030492547   -0.6591842      0.022925647   -0.59054924     0.0063836389 
    314000   0.034459238   -0.65921015     0.022183651   -0.58537099     0.015518905  
    315000   0.03393667    -0.65975812     0.022284607   -0.58660135     0.0066514813 
    316000   0.031765498   -0.66079829     0.022343992   -0.59083679     0.0050935321 
    317000   0.032247044   -0.66352691     0.022162005   -0.59302555     0.0057740569 
    318000   0.033373308   -0.66674802     0.022316841   -0.59440351     0.010150177  
    319000   0.031945973   -0.66929715     0.0239451     -0.59746401     0.014877419  
    320000   0.032581112   -0.67063217     0.024005091   -0.59778694     0.011797313  
    321000   0.033476588   -0.67171393     0.023585736   -0.5979457      0.002413939  
    322000   0.03358496    -0.67114144     0.02351718    -0.59727932     0.0090421615 
    323000   0.034976312   -0.67206453     0.023494072   -0.59613984     0.0032101278 
    324000   0.034215463   -0.67280959     0.023647422   -0.59787208     0.01196466   
    325000   0.033763878   -0.67154649     0.023884913   -0.59704844     0.00098304372
    326000   0.033606803   -0.6732605      0.023193268   -0.59968955     0.0065197443 
    327000   0.032996359   -0.67424444     0.022774586   -0.60200725     0.014144845  
    328000   0.033626968   -0.6744332      0.023919685   -0.6001056     -0.0015432921 
    329000   0.032577384   -0.67538872     0.023994748   -0.60255942     0.0086098813 
    330000   0.034068342   -0.67348281     0.023956842   -0.59845642     0.01068542   
    331000   0.034467866   -0.67464738     0.024118807   -0.59886013     0.010097476  
    332000   0.03508491    -0.6742557      0.02455289    -0.5971094      0.012419625  
    333000   0.035171784   -0.67680016     0.023466207   -0.60061031     0.0038853641 
    334000   0.035553676   -0.67603692     0.022982657   -0.59975815     0.0078537865 
    335000   0.033499131   -0.67692419     0.02338815    -0.60331976     0.0062317531 
    336000   0.034845233   -0.68042852     0.023782111   -0.60441228     0.012037653  
    337000   0.034593816   -0.67975397     0.02419792    -0.6036988      0.0029636743 
    338000   0.035312387   -0.6805876      0.025324681   -0.60232852     0.0012216781 
    339000   0.035929987   -0.68001051     0.025087843   -0.60106246     0.0041440163 
    340000   0.035774856   -0.68302861     0.026251049   -0.6031499     -0.0029833942 
    341000   0.034755426   -0.6824557      0.025580399   -0.60477579     0.0044007909 
    342000   0.036039001   -0.68570928     0.024110719   -0.60757493     0.0065171616 
    343000   0.034342238   -0.68501087     0.025680377   -0.60785037     0.0040212972 
    344000   0.035562181   -0.68724716     0.025195805   -0.60874249     0.0012756164 
    345000   0.03645082    -0.68963478     0.026095738   -0.60889809     0.0061333452 
    346000   0.035729364   -0.6870224      0.025016161   -0.60844677     0.003313097  
    347000   0.036981378   -0.69093827     0.024511772   -0.61099021     0.0011395309 
    348000   0.036057022   -0.69021218     0.025470937   -0.61069061     0.0035761856 
    349000   0.036464323   -0.69043883     0.0259734     -0.60980423     0.00094924279
    350000   0.035804821   -0.69165458     0.02497425    -0.61300775     0.0074252368 
    351000   0.03816619    -0.69137862     0.025316859   -0.60884941    -0.0058880457 
    352000   0.039552682   -0.68834059     0.025113763   -0.60393608     0.0035898586 
    353000   0.037182363   -0.68994214     0.025833377   -0.6083712      0.0075626947 
    354000   0.037394099   -0.69055995     0.024479211   -0.61002578     0.019485742  
    355000   0.036700369   -0.69090703     0.025425212   -0.61046679     0.0043087474 
    356000   0.036663221   -0.69160595     0.025467076   -0.61117952     0.014747471  
    357000   0.036412358   -0.69348665     0.025670079   -0.61323327    -0.0026480916 
    358000   0.036727364   -0.69382827     0.026908375   -0.61186439     0.010334163  
    359000   0.038313708   -0.69550361     0.024780784   -0.61328935     0.011122074  
    360000   0.037519991   -0.6966432      0.026908296   -0.61349123     0.0031572624 
    361000   0.036480526   -0.69757031     0.027836791   -0.61504803     0.0027034653 
    362000   0.036176789   -0.69757683     0.027699074   -0.61564759     0.0044073235 
    363000   0.036988506   -0.69815183     0.02690508    -0.61579978     0.016493114  
    364000   0.038122453   -0.6999098      0.027154883   -0.61560813    -0.00015270622
    365000   0.037332264   -0.70378314     0.027892773   -0.6199281      0.010196313  
    366000   0.036989802   -0.70399487     0.026536567   -0.6220094      0.0037182592 
    367000   0.038527241   -0.70674648     0.028027234   -0.62096567     0.0022197704 
    368000   0.037438344   -0.70842425     0.027637986   -0.62466498     0.0024949467 
    369000   0.039599138   -0.70956866     0.027015488   -0.62319279     0.023920488  
    370000   0.03712746    -0.70816315     0.027240042   -0.62526785     0.015294067  
    371000   0.039446765   -0.70973357     0.027716963   -0.62288464     0.021373264  
    372000   0.039380055   -0.70870013     0.028766243   -0.62090192     0.0022638214 
    373000   0.041034041   -0.70758646     0.029117244   -0.61695786     0.00018064806
    374000   0.039309285   -0.70925743     0.027247364   -0.62308418    -0.0032306932 
    375000   0.038545642   -0.70972397     0.028152743   -0.62379007     0.014575145  
    376000   0.039163448   -0.71003066     0.028353228   -0.62297016     0.014566277  
    377000   0.038751214   -0.71178933     0.026308296   -0.62739171     0.010490197  
    378000   0.040473887   -0.71165256     0.025937124   -0.62504378     0.0094386759 
    379000   0.039660353   -0.71345884     0.027547976   -0.62645872     0.0098370908 
    380000   0.039615423   -0.71492204     0.028392183   -0.62714506     0.0066001457 
    381000   0.039705181   -0.71653107     0.028796853   -0.62821487     0.016322186  
    382000   0.03939183    -0.71876789     0.029375757   -0.63034251     0.0070954752 
    383000   0.039890184   -0.71870187     0.027499882   -0.63140532     0.011052963  
    384000   0.03998708    -0.71936552     0.027515891   -0.6319077      0.011169961  
    385000   0.039246322   -0.72048362     0.029602765   -0.63204935     0.0019667774 
    386000   0.040349958   -0.72049447     0.027765627   -0.63224295     0.0045129817 
    387000   0.041101993   -0.72201575     0.029762572   -0.63063996     0.011927856  
    388000   0.040748945   -0.72419528     0.028013841   -0.63509746    -0.00064764026
    389000   0.039408175   -0.72583634     0.029546639   -0.63721558     0.0053383169 
    390000   0.040720668   -0.7246569      0.028406785   -0.63520852     0.019365354  
    391000   0.03943033    -0.72613077     0.028922765   -0.63810067     0.0030867719 
    392000   0.039991165   -0.72794149     0.028848457   -0.63914499     0.0029450246 
    393000   0.040756928   -0.72716439     0.028263546   -0.63780489     0.0040981098 
    394000   0.041065627   -0.72765159     0.029914922   -0.63617797     0.0099034949 
    395000   0.040738193   -0.73062247     0.029776711   -0.6397779      0.0040606919 
    396000   0.041999785   -0.73071731     0.030067056   -0.63769122     0.011606995  
    397000   0.040776452   -0.73071177     0.031265628   -0.63832092    -0.0052042966 
    398000   0.041587975   -0.73005088     0.028242409   -0.63946675    -0.015726706  
    399000   0.039898938   -0.72999459     0.030560947   -0.63962385    -0.00012401953
    400000   0.04105043    -0.72965371     0.030019776   -0.63809801     0.006991069  
    401000   0.042594955   -0.73302613     0.030469355   -0.63870557     0.0019313141 
    402000   0.042390041   -0.73416177     0.031626868   -0.63899087     0.0011744696 
    403000   0.043268558   -0.73339915     0.030542975   -0.63799521     0.0054369042 
    404000   0.042349319   -0.73131452     0.031022022   -0.6368095      0.0044016933 
    405000   0.041924001   -0.7337599      0.030939996   -0.63997447     0.015311949  
    406000   0.044231965   -0.73490629     0.031729184   -0.63687196     0.021054243  
    407000   0.042008759   -0.73659443     0.031851081   -0.64177086     0.0072854803 
    408000   0.04314664    -0.73690046     0.030846452   -0.6413758      0.0051610654 
    409000   0.042066843   -0.73599055     0.031919244   -0.64101176     0.010377448  
    410000   0.043617376   -0.73794404     0.031534923   -0.64102526     0.0082922451 
    411000   0.043916729   -0.7377606      0.031061223   -0.64086678     0.028483112  
    412000   0.04298214    -0.73732426     0.033113254   -0.63977939     0.014197549  
    413000   0.044011041   -0.73595237     0.034384447   -0.63559396     0.019043519  
    414000   0.043826928   -0.73761751     0.032108405   -0.63981113     0.022219023  
    415000   0.044779813   -0.73917411     0.032104281   -0.63994344     0.0095212105 
    416000   0.043544158   -0.74003811     0.032096404   -0.64266761    -0.0083623992 
    417000   0.044359191   -0.73955102     0.031467551   -0.64158761     0.013318898  
    418000   0.043908828   -0.74031346     0.031337304   -0.64315541     0.014012164  
    419000   0.042665587   -0.74011622     0.033435758   -0.64272337     0.0072814091 
    420000   0.044473194   -0.73997363     0.032336359   -0.64097052     0.0035732889 
    421000   0.044633195   -0.74256909     0.034772277   -0.64089021     0.01004794   
    422000   0.046039584   -0.74312824     0.034954906   -0.63915851     0.0056524123 
    423000   0.043725662   -0.74352145     0.034438584   -0.64353669     0.011542542  
    424000   0.0457111     -0.74327704     0.032885811   -0.64186882     0.015046181  
    425000   0.046922316   -0.74228029     0.035797382   -0.63614485     0.0093417231 
    426000   0.046058203   -0.74430458     0.034581666   -0.64068018     0.0086928855 
    427000   0.047758542   -0.74463854     0.034990458   -0.63805649     0.003052653  
    428000   0.045361762   -0.74488612     0.034093192   -0.64279418     0.012537051  
    429000   0.049192836   -0.7485377      0.035783863   -0.63901219     0.012655089  
    430000   0.046246279   -0.74730741     0.03626263    -0.64172011     0.0069908303 
    431000   0.044966646   -0.74793071     0.034414595   -0.64610966     0.017778225  
    432000   0.044027026   -0.74940797     0.03321737    -0.65019267     0.010761833  
    433000   0.04566394    -0.75107013     0.033885449   -0.64873296     0.0049594167 
    434000   0.045766699   -0.75256292     0.034269276   -0.64968789     0.0057566369 
    435000   0.046521142   -0.75197301     0.034589078   -0.64764724     0.012633695  
    436000   0.045435942   -0.75184941     0.03467742    -0.64906205     0.0023239107 
    437000   0.045955299   -0.75041808     0.034285722   -0.64724389     0.010889847  
    438000   0.04689494    -0.7529103      0.033864337   -0.64874894     0.0061725915 
    439000   0.045752473   -0.75279671     0.034625174   -0.6495871      0.014951907  
    440000   0.046472778   -0.75337987     0.034752785   -0.64896289     0.013144812  
    441000   0.047031743   -0.75377082     0.033206243   -0.65006248     0.02520456   
    442000   0.046862867   -0.75397631     0.038801532   -0.64492583     0.0087396437 
    443000   0.048686562   -0.75288609     0.036850895   -0.64305246     0.01285007   
    444000   0.047257443   -0.7525045      0.036194453   -0.64546961    -0.0013361829 
    445000   0.048013475   -0.75234233     0.037953607   -0.64241497    -0.00054594917
    446000   0.047517961   -0.75252539     0.035835683   -0.64545875     0.0079775348 
    447000   0.048844954   -0.75306578     0.037005587   -0.64284003     0.0049899261 
    448000   0.046554118   -0.75202393     0.037429284   -0.64480852     0.0051723291 
    449000   0.046651703   -0.75198885     0.037064706   -0.64499174     0.0044506098 
    450000   0.047894671   -0.75319949     0.035165931   -0.6462379      0.0084654988 
    451000   0.047235923   -0.75139488     0.033972804   -0.64661391     0.0077053302 
    452000   0.04888489    -0.75347544     0.036666937   -0.64352848     0.00044278322
    453000   0.047714536   -0.75230021     0.039623869   -0.64115071     0.0038744285 
    454000   0.047998139   -0.75467552     0.037560472   -0.64516429     0.013815522  
    455000   0.050192638   -0.75586308     0.035639175   -0.64498352     0.0053006514 
    456000   0.048972485   -0.75882094     0.03719133    -0.64821827     0.0018052225 
    457000   0.047366821   -0.75698715     0.038591249   -0.64739151     0.0011758025 
    458000   0.050765166   -0.75715166     0.035670611   -0.64538243     0.0074506178 
    459000   0.048562953   -0.75379464     0.036342409   -0.64465479     0.0040584716 
    460000   0.048539345   -0.75447713     0.035912779   -0.64580231     0.0095151395 
    461000   0.049795644   -0.75378733     0.035550893   -0.64359116     0.017581345  
    462000   0.048900941   -0.75487789     0.035928936   -0.64564487     0.026004975  
    463000   0.049086489   -0.75468542     0.03559752    -0.64550567     0.022035857  
    464000   0.045790104   -0.75499435     0.035958384   -0.65039513     0.018447555  
    465000   0.048935813   -0.75512802     0.037579264   -0.6441924      0.020072259  
    466000   0.047372074   -0.75443222     0.036479079   -0.64694087     0.0070530154 
    467000   0.049208534   -0.75512461     0.039302278   -0.64205715     0.028359115  
    468000   0.052185769   -0.75181605     0.037614804   -0.63597309     0.019116957  
    469000   0.049604444   -0.75148289     0.038084715   -0.63903951     0.006195577  
    470000   0.051028252   -0.74907941     0.038841363   -0.63374505     0.0082432054 
    471000   0.052083925   -0.74961616     0.037126736   -0.63441394     0.020374495  
    472000   0.052202678   -0.75019847     0.037437358   -0.63450761     0.015135665  
    473000   0.051283814   -0.74946259     0.035814954   -0.63677154     0.0209325    
    474000   0.049313208   -0.74994112     0.037018678   -0.63900035     0.024373638  
    475000   0.050810906   -0.75143395     0.037035192   -0.63823157     0.016994912  
    476000   0.051057952   -0.75072596     0.037906214   -0.63628222     0.0041837189 
    477000   0.051346492   -0.74972196     0.037868462   -0.63488345     0.0058256023 
    478000   0.050949497   -0.74916762     0.037116742   -0.63567593     0.013890057  
    479000   0.050423246   -0.74980346     0.037297997   -0.63691939     0.0076964016 
    480000   0.050254366   -0.74871806     0.036144894   -0.63724025     0.01952187   
    481000   0.049518308   -0.74883002     0.039119574   -0.6354809      0.011955122  
    482000   0.050191984   -0.74790323     0.037838166   -0.63482566     0.035740364  
    483000   0.051195059   -0.74877907     0.037506631   -0.63452939     0.023857289  
    484000   0.052714543   -0.74880285     0.039856708   -0.62992535     0.016597724  
    485000   0.051306477   -0.74837288     0.038202285   -0.63326053     0.0069262919 
    486000   0.052226499   -0.74769076     0.038179261   -0.63122229     0.025636168  
    487000   0.053440594   -0.74964492     0.038319184   -0.63121656     0.014381736  
    488000   0.052029331   -0.74930188     0.039132084   -0.63217615     0.013565661  
    489000   0.05230466    -0.74983851     0.03875751    -0.63267462     0.016345565  
    490000   0.050995068   -0.74854158     0.039246833   -0.6328515      0.027648423  
    491000   0.052325136   -0.75049598     0.037054302   -0.63500462     0.0087682612 
    492000   0.052220762   -0.74973658     0.04156495    -0.62989102     0.00081210037
    493000   0.053328249   -0.75207787     0.038146822   -0.63399028     0.013769698  
    494000   0.051804576   -0.75002887     0.038881152   -0.63349098     0.023692563  
    495000   0.051299565   -0.75190416     0.036289186   -0.63871527     0.021632873  
    496000   0.053707618   -0.75097115     0.03699934    -0.63346236     0.012384742  
    497000   0.051147643   -0.75107505     0.040276861   -0.63412622     0.025657284  
    498000   0.05512031    -0.75351189     0.039002883   -0.63188189     0.015177442  
    499000   0.051160147   -0.75153467     0.040271009   -0.63457295    -0.0029116453 
    500000   0.051851375   -0.75179424     0.041255829   -0.63281152     0.0059125273 
Loop time of 128.128 on 8 procs for 500000 steps with 1550 atoms

Performance: 337163.393 tau/day, 3902.354 timesteps/s, 6.049 Matom-step/s
91.6% CPU use with 8 MPI tasks x 1 OpenMP threads

MPI task timing breakdown:
Section |  min time  |  avg time  |  max time  |%varavg| %total
---------------------------------------------------------------
Pair    | 16.396     | 17.885     | 20.428     |  30.1 | 13.96
Bond    | 4.9191     | 5.3378     | 5.858      |  12.8 |  4.17
Neigh   | 0.12476    | 0.12492    | 0.12521    |   0.0 |  0.10
Comm    | 12.194     | 15.241     | 16.62      |  38.3 | 11.89
Output  | 0.62071    | 0.63952    | 0.65965    |   1.5 |  0.50
Modify  | 87.366     | 87.509     | 87.63      |   0.9 | 68.30
Other   |            | 1.391      |            |       |  1.09

Nlocal:         193.75 ave         243 max         165 min
Histogram: 1 1 2 2 0 0 1 0 0 1
Nghost:        648.375 ave         665 max         605 min
Histogram: 1 0 0 0 0 1 0 0 5 1
Neighs:              0 ave           0 max           0 min
Histogram: 8 0 0 0 0 0 0 0 0 0
FullNghs:         4231 ave        6959 max        3147 min
Histogram: 3 1 2 0 1 0 0 0 0 1

Total # of neighbors = 33848
Ave neighs/atom = 21.837419
Ave special neighs/atom = 2.1612903
Neighbor list builds = 442
Dangerous builds = 0

unfix ThermoLng

# Now we let the system to create the polymeric network
fix ThermoLng all langevin ${temp} ${temp} ${damp} ${seed3} # Brownian Dynamics: langevin + nve
fix ThermoLng all langevin 0.05 ${temp} ${damp} ${seed3} 
fix ThermoLng all langevin 0.05 0.05 ${damp} ${seed3} 
fix ThermoLng all langevin 0.05 0.05 1 ${seed3} 
fix ThermoLng all langevin 0.05 0.05 1 2010 
run ${steps}
run 8000000
WARNING: Using a manybody potential with bonds/angles/dihedrals and special_bond exclusions (src/pair.cpp:250)
Hybrid pair style last /omp style table/omp
Last active /omp style is angle_style harmonic/omp
Per MPI rank memory allocation (min/avg/max) = 23.66 | 23.67 | 23.67 Mbytes
   Step          Temp          E_pair         E_mol          TotEng         Press     
    500000   0.051851375   -0.75179424     0.041255829   -0.63281152     0.0060374637 
    501000   0.052132923   -0.75328513     0.038399724   -0.63673648     0.021544582  
    502000   0.052161968   -0.75378905     0.04049798    -0.63509859     0.0022760924 
    503000   0.053424026   -0.75422992     0.040234031   -0.63391155     0.029148186  
    504000   0.05452204    -0.75374801     0.039625646   -0.63239207     0.0043287329 
    505000   0.052410374   -0.75404801     0.041414236   -0.63406894     0.030246334  
    506000   0.054768064   -0.7536561      0.03971406    -0.63184294     0.031862927  
    507000   0.053736662   -0.7530083      0.037910358   -0.63454495     0.025556941  
    508000   0.055479088   -0.75654056     0.037372238   -0.63600338     0.014261125  
    509000   0.052293626   -0.75500186     0.036220414   -0.64039161     0.01881376   
    510000   0.05292745    -0.75732161     0.038754953   -0.6392267      0.013696981  
    511000   0.05140311    -0.75576729     0.038816507   -0.63989586     0.025717372  
    512000   0.051219792   -0.75656708     0.037707125   -0.64207983     0.025851126  
    513000   0.051960259   -0.7566207      0.037787839   -0.64094275    -0.0068424283 
    514000   0.053756081   -0.75471476     0.040439469   -0.63369319     0.017574897  
    515000   0.053010172   -0.75809851     0.040613971   -0.63802058     0.014801985  
    516000   0.053636482   -0.75581828     0.039782765   -0.6356327      0.020310097  
    517000   0.05470909    -0.75657839     0.039664193   -0.63490351     0.040246142  
    518000   0.055100094   -0.75838032     0.040860276   -0.63492322     0.015154003  
    519000   0.051305615   -0.75922245     0.039286383   -0.6430273      0.015970034  
    520000   0.052676129   -0.76210775     0.039123978   -0.64402056     0.023982316  
    521000   0.051925272   -0.7599937      0.038438499   -0.64371754     0.027273042  
    522000   0.052001999   -0.76204456     0.03606776    -0.64802413     0.0054268323 
    523000   0.054255875   -0.7603015      0.036750615   -0.64221958     0.031476943  
    524000   0.05033276    -0.76169039     0.038451971   -0.64778799     0.022532913  
    525000   0.051776996   -0.76381179     0.03688077    -0.64931564     0.019231706  
    526000   0.054054374   -0.75975548     0.037451712   -0.64127452     0.023103409  
    527000   0.052663328   -0.76356035     0.038652195   -0.64596413     0.012417295  
    528000   0.053010831   -0.76654992     0.039026355   -0.64805862     0.0071084967 
    529000   0.052079402   -0.76580241     0.037064112   -0.6506696      0.020700247  
    530000   0.053265052   -0.76767758     0.039834955   -0.64799659     0.028217159  
    531000   0.050742877   -0.76844976     0.037923007   -0.65446154     0.010333265  
    532000   0.051444707   -0.76894234     0.038069439   -0.65375563     0.013595616  
    533000   0.052345435   -0.76990012     0.035689943   -0.65574268     0.023789125  
    534000   0.052396497   -0.76940451     0.036526065   -0.65433441     0.016184192  
    535000   0.053349544   -0.76996273     0.035255275   -0.65473477    -0.0031100189 
    536000   0.0516164     -0.76833892     0.038035296   -0.65292897     0.015651581  
    537000   0.054746745   -0.77016499     0.03673436    -0.65136349     0.017201402  
    538000   0.05235378    -0.76923084     0.039192816   -0.65155802     0.011669382  
    539000   0.053450673   -0.76996232     0.037897172   -0.65194087     0.011398497  
    540000   0.052270274   -0.76780302     0.038232886   -0.65121531     0.023450918  
    541000   0.052077739   -0.76863189     0.037837395   -0.65272829    -0.0053985306 
    542000   0.052907542   -0.76845821     0.038012825   -0.65113527    -0.0013908397 
    543000   0.052773617   -0.76854718     0.037203289   -0.65223454     0.0055952179 
    544000   0.052723892   -0.76959852     0.036626457   -0.65393725     0.011696776  
    545000   0.05208707    -0.76801179     0.036161989   -0.6537696      0.022778549  
    546000   0.052687197   -0.768891       0.035537267   -0.65437392     0.010939371  
    547000   0.052512058   -0.76985199     0.040090019   -0.65104471     0.0035917273 
    548000   0.054439712   -0.76987744     0.037958496   -0.65031206     0.01840345   
    549000   0.052422243   -0.76994632     0.037474204   -0.65388949     0.026793307  
    550000   0.052506643   -0.77289631     0.037548681   -0.65663848     0.021057699  
    551000   0.053097673   -0.77223838     0.038686534   -0.65395672     0.018753189  
    552000   0.054044758   -0.77180834     0.037351592   -0.65344191     0.020723331  
    553000   0.053595461   -0.77310286     0.038322764   -0.65443877     0.010836841  
    554000   0.054564063   -0.77122907     0.037920717   -0.65151507     0.016094822  
    555000   0.053651518   -0.77286965     0.03720731    -0.65523698     0.013829312  
    556000   0.053204664   -0.77219277     0.037526365   -0.65491089     0.010671192  
    557000   0.052145119   -0.773071       0.038211386   -0.6566924      0.0020716626 
    558000   0.051152971   -0.77260596     0.036694327   -0.65923167     0.015377453  
    559000   0.052542598   -0.77207032     0.038234019   -0.65507326     0.020129611  
    560000   0.054917625   -0.77114813     0.037039567   -0.65178527     0.022657379  
    561000   0.052383679   -0.77402731     0.039647017   -0.65585547     0.0065239468 
    562000   0.049982084   -0.77283416     0.03879013    -0.65911927    -0.0029543744 
    563000   0.052941576   -0.77211862     0.036822276   -0.65593522     0.0083628712 
    564000   0.051849444   -0.77227859     0.037906429   -0.65664817     0.014978643  
    565000   0.052172556   -0.7733611      0.037223049   -0.65792971    -0.0071921684 
    566000   0.052892723   -0.77229478     0.036513744   -0.65649314     0.0060154297 
    567000   0.053377906   -0.77445953     0.037431823   -0.6570125      0.019121245  
    568000   0.051976274   -0.77467963     0.036470649   -0.66029487     0.025583081  
    569000   0.053513493   -0.77633761     0.038663941   -0.65745522     0.0042283499 
    570000   0.052862604   -0.77421892     0.036857721   -0.65811845     0.028241719  
    571000   0.051709597   -0.77550055     0.036442079   -0.66154412     0.021610898  
    572000   0.050961568   -0.77612028     0.036786317   -0.66294093     0.0060154925 
    573000   0.052195289   -0.77431421     0.036712323   -0.65935947    -0.0026632927 
    574000   0.051295606   -0.77264009     0.038522745   -0.65722358     0.0071941705 
    575000   0.053276652   -0.77428595     0.038590115   -0.65583242     0.0082063871 
    576000   0.053422287   -0.77492859     0.036328188   -0.65851867     0.014982906  
    577000   0.052029133   -0.7741297      0.037408115   -0.65872824     0.0065057211 
    578000   0.054378949   -0.77418097     0.037011838   -0.65565333     0.014897875  
    579000   0.051726392   -0.77411437     0.037745398   -0.65882944     0.014066666  
    580000   0.051236163   -0.77666454     0.03784039    -0.66201949     0.00994379   
    581000   0.051343296   -0.77526208     0.038954365   -0.65934246     0.017059125  
    582000   0.052090999   -0.77481375     0.038537419   -0.65819024     0.017067656  
    583000   0.051562175   -0.77595586     0.037572979   -0.66108952     0.0065692974 
    584000   0.050537899   -0.77612852     0.036860122   -0.66351046     0.013850135  
    585000   0.051877121   -0.77626709     0.037077102   -0.66142451     0.01845225   
    586000   0.053170688   -0.77648993     0.037241276   -0.65954408     0.023220863  
    587000   0.051435694   -0.77578598     0.037649484   -0.66103273     0.027237741  
    588000   0.052879837   -0.77600326     0.036819588   -0.65991509     0.025986513  
    589000   0.052179144   -0.77885552     0.039692523   -0.66094478     0.0068074589 
    590000   0.052894222   -0.77871893     0.035555176   -0.66387361     0.037452442  
    591000   0.051738037   -0.77822808     0.040602779   -0.66006831     0.010245851  
    592000   0.052830659   -0.77772518     0.040037763   -0.65849255     0.016899636  
    593000   0.053725832   -0.77800661     0.040759262   -0.65671059     0.013287919  
    594000   0.054046467   -0.77781984     0.039410909   -0.65739154     0.039273195  
    595000   0.052286976   -0.77820754     0.036319569   -0.6635081      0.035023738  
    596000   0.052218335   -0.77715697     0.039138895   -0.6597411      0.018720686  
    597000   0.052734795   -0.77898796     0.039514415   -0.66042238     0.035762041  
    598000   0.052864572   -0.77938559     0.039798336   -0.66034156     0.038684928  
    599000   0.053275467   -0.78050316     0.03921328    -0.66142824     0.024633498  
    600000   0.052297481   -0.78144027     0.040275389   -0.66276927     0.025863142  
    601000   0.054475482   -0.78339913     0.036911241   -0.66482738     0.023798955  
    602000   0.051737956   -0.78324787     0.037809885   -0.66788112     0.020555415  
    603000   0.055391845   -0.78019006     0.038887432   -0.65826847     0.032870136  
    604000   0.055318163   -0.7801451      0.038497694   -0.6587237      0.042622296  
    605000   0.053291508   -0.77947578     0.038796027   -0.66079407     0.038209721  
    606000   0.053010405   -0.77928702     0.039097755   -0.66072496     0.043154423  
    607000   0.053891817   -0.78203309     0.04004093    -0.66120659     0.027815121  
    608000   0.052421639   -0.78035151     0.039010341   -0.66275944     0.023253195  
    609000   0.052302044   -0.78001472     0.038904375   -0.66270789     0.023212003  
    610000   0.051521758   -0.78063063     0.039173953   -0.6642239      0.017809631  
    611000   0.052518534   -0.77835777     0.038938307   -0.66069249     0.043325032  
    612000   0.052767467   -0.77985049     0.037355283   -0.66339508     0.03118309   
    613000   0.054364274   -0.78164396     0.037517026   -0.66263313     0.016835079  
    614000   0.052222911   -0.78074767     0.038308831   -0.66415501     0.020116764  
    615000   0.052456018   -0.7793976      0.037185939   -0.6635784      0.03782703   
    616000   0.054176349   -0.78092335     0.037349295   -0.66236196     0.017775263  
    617000   0.052242571   -0.77981576     0.037142563   -0.6643599      0.025300801  
    618000   0.05312585    -0.78105885     0.037518782   -0.6639027     -0.0012552655 
    619000   0.051275064   -0.77923629     0.037790223   -0.6645831      0.025960725  
    620000   0.051303896   -0.78031571     0.037601383   -0.66580813     0.025782223  
    621000   0.051708378   -0.78185087     0.039693878   -0.66464446     0.042402273  
    622000   0.053634745   -0.78407249     0.039669854   -0.66400242     0.015107196  
    623000   0.053092993   -0.78278025     0.037707771   -0.66548437     0.018679229  
    624000   0.051571353   -0.78353662     0.038736036   -0.66749346     0.03972303   
    625000   0.049648465   -0.78332251     0.038447298   -0.67045056     0.016016462  
    626000   0.053038637   -0.78359385     0.038045597   -0.66604163     0.00077537762
    627000   0.051248548   -0.78125593     0.037112553   -0.66732015     0.0094168993 
    628000   0.051684873   -0.78368748     0.039884518   -0.66632567     0.033747807  
    629000   0.052761173   -0.78398979     0.040245798   -0.66465329     0.009074798  
    630000   0.051875667   -0.78310482     0.039170775   -0.66617075     0.025192746  
    631000   0.052522597   -0.783961       0.03866749    -0.66656044     0.03948417   
    632000   0.053518033   -0.78513201     0.040351714   -0.66455503     0.021111751  
    633000   0.051410293   -0.78502015     0.038559345   -0.66939511     0.0028906592 
    634000   0.051787225   -0.78643781     0.036638355   -0.67216873     0.001231797  
    635000   0.051599235   -0.784791       0.038350076   -0.66909201     0.013245708  
    636000   0.054157855   -0.78794488     0.03729297    -0.66946754     0.034805652  
    637000   0.052545975   -0.78727617     0.0376532     -0.67085486     0.033985757  
    638000   0.050767662   -0.78773718     0.038061277   -0.67357354     0.032069918  
    639000   0.051175458   -0.78806151     0.037118034   -0.67422981     0.035610397  
    640000   0.053910101   -0.78762058     0.037582483   -0.66922512     0.023614963  
    641000   0.053958528   -0.78642028     0.037245227   -0.66828948     0.022442206  
    642000   0.055458436   -0.78867926     0.038209269   -0.66733601     0.021536336  
    643000   0.053038928   -0.78722906     0.039341125   -0.66838087     0.016057165  
    644000   0.052402598   -0.78945093     0.037324098   -0.67357364     0.013371574  
    645000   0.055317142   -0.78905979     0.039253527   -0.66688408     0.0096908143 
    646000   0.053500219   -0.78476013     0.038894222   -0.66566735     0.02874744   
    647000   0.05249707    -0.78562568     0.039267721   -0.66766316     0.022180618  
    648000   0.05572734    -0.78717294     0.040650695   -0.66298516     0.022769227  
    649000   0.054979897   -0.78478308     0.039854078   -0.66251236     0.025164166  
    650000   0.05247609    -0.78492399     0.040319768   -0.66594087     0.01038603   
    651000   0.052354442   -0.78705182     0.041130154   -0.66744067     0.0031106514 
    652000   0.054903797   -0.78681182     0.039388612   -0.66512064     0.0068862789 
    653000   0.054530428   -0.79009445     0.040382282   -0.66796929     0.029252992  
    654000   0.053609636   -0.78974818     0.038395956   -0.67098965     0.0086467816 
    655000   0.053336489   -0.79054956     0.041071308   -0.66952514    -0.0064397233 
    656000   0.054271815   -0.78938092     0.037313516   -0.67071221     0.0010766276 
    657000   0.05124096    -0.79052886     0.039870411   -0.67384659     0.0090939838 
    658000   0.051439956   -0.78948076     0.037607479   -0.67476313     0.021152811  
    659000   0.05164183    -0.79094711     0.041232494   -0.67230185     0.0025554674 
    660000   0.05297042    -0.79020232     0.039025335   -0.67177261     0.016932755  
    661000   0.054231337   -0.79221574     0.039124469   -0.67179674     0.029430674  
    662000   0.053446405   -0.79063935     0.03902561    -0.67149585     0.015959421  
    663000   0.052810142   -0.79155578     0.038713479   -0.6736782      0.013698985  
    664000   0.051896942   -0.79074538     0.03891818    -0.67403201     0.02057186   
    665000   0.053865536   -0.79251997     0.039700183   -0.67207361     0.019020272  
    666000   0.052395393   -0.79169286     0.040535896   -0.67261458     0.012671092  
    667000   0.052339808   -0.79080344     0.039466442   -0.67287794     0.0069026171 
    668000   0.053177495   -0.79156162     0.039089408   -0.67275743     0.0091371483 
    669000   0.052655598   -0.79101732     0.038746601   -0.67333828     0.0038209892 
    670000   0.053295829   -0.79051102     0.039143458   -0.67147539     0.0072268832 
    671000   0.056684633   -0.79216241     0.041081638   -0.66610868    -0.0079447198 
    672000   0.054493319   -0.79296851     0.03998196    -0.67129931    -0.0018895148 
    673000   0.055226346   -0.79345358     0.040645436   -0.67002207    -0.0023077607 
    674000   0.055049778   -0.79332028     0.039472457   -0.67132643     0.024265125  
    675000   0.052800595   -0.79263181     0.042144264   -0.67133775     0.017689642  
    676000   0.052845123   -0.79308293     0.03751155    -0.67635483     0.019712985  
    677000   0.052253036   -0.79199856     0.03967989    -0.67398969     0.025979295  
    678000   0.05262048    -0.79180744     0.038118636   -0.67480901     0.042068669  
    679000   0.051995751   -0.79297294     0.038960602   -0.67606903     0.013383622  
    680000   0.053039223   -0.7953193      0.039094818   -0.67671698     0.024913687  
    681000   0.053576504   -0.79506695     0.037600488   -0.67715355     0.023778136  
    682000   0.051823091   -0.79547794     0.039258836   -0.67853462     0.015058938  
    683000   0.053072616   -0.79591182     0.041052013   -0.67530224     0.028485835  
    684000   0.052688713   -0.79663359     0.039962741   -0.67768877     0.012598519  
    685000   0.051989278   -0.79518017     0.037555989   -0.67969057     0.017236105  
    686000   0.052374509   -0.79525239     0.04043443    -0.67630689     0.013006461  
    687000   0.052945596   -0.79746623     0.040175574   -0.6779235      0.016168571  
    688000   0.054090825   -0.7985711      0.039995695   -0.67749151     0.0072753372 
    689000   0.053806527   -0.79840577     0.039217078   -0.67853097     0.007823249  
    690000   0.055290506   -0.79820328     0.041815017   -0.67350601     0.0078219261 
    691000   0.055737619   -0.79392512     0.039828715   -0.67054392     0.009869709  
    692000   0.054326711   -0.79456755     0.037505308   -0.67562475    -0.0001290907 
    693000   0.053155308   -0.79401022     0.03876479    -0.67556391     0.024617257  
    694000   0.05382484    -0.79546473     0.040893964   -0.67388559     0.021382996  
    695000   0.052668037   -0.79327897     0.038481035   -0.67584685     0.0080840195 
    696000   0.054167878   -0.79577795     0.039773116   -0.67480544     0.010776632  
    697000   0.054287611   -0.79601181     0.03975901    -0.67487392     0.0082168957 
    698000   0.055519314   -0.79401776     0.041969043   -0.66882347     0.0045768418 
    699000   0.054485911   -0.79733387     0.040169988   -0.67548775     0.00294757   
    700000   0.052651261   -0.79657202     0.039661138   -0.67798495     0.017503332  
    701000   0.053061216   -0.79479644     0.041133597   -0.67412237     0.028334189  
    702000   0.054339808   -0.79499984     0.038273416   -0.6752693      0.026380411  
    703000   0.054338752   -0.79230932     0.041925722   -0.66892805     0.024448512  
    704000   0.052111565   -0.79440978     0.039321588   -0.67697127     0.0021136853 
    705000   0.053241015   -0.79497764     0.03771032    -0.67745732     0.0018305364 
    706000   0.054651575   -0.7943242      0.041537378   -0.67086235     0.01773877   
    707000   0.052106465   -0.79283852     0.042018168   -0.67271108     0.01759647   
    708000   0.053770224   -0.79587431     0.039367745   -0.67590326     0.0090169159 
    709000   0.052400324   -0.79413627     0.038070823   -0.67751567     0.0035347322 
    710000   0.052376034   -0.79385994     0.038825786   -0.67652079     0.01347339   
    711000   0.051986002   -0.7944068      0.042540001   -0.67393811     0.025890784  
    712000   0.054480011   -0.79259847     0.038491964   -0.67243921     0.0059651873 
    713000   0.054288198   -0.79354745     0.038243884   -0.67392381     0.019483472  
    714000   0.054570713   -0.79488641     0.038112047   -0.6749711     -0.0033630019 
    715000   0.0537134     -0.79347886     0.037961152   -0.67499959     0.025062797  
    716000   0.05460875    -0.79602699     0.040350464   -0.67381625     0.028445188  
    717000   0.055418934   -0.79558502     0.039258839   -0.67325141     0.021330834  
    718000   0.051214304   -0.79700882     0.041147124   -0.67908981     0.0070837735 
    719000   0.050264403   -0.7953359      0.039450634   -0.6805373      0.019346824  
    720000   0.053445372   -0.79553867     0.037532097   -0.67789024     0.022527915  
    721000   0.053220392   -0.79403486     0.041339177   -0.6729166      0.033619596  
    722000   0.053419902   -0.79564188     0.038969212   -0.67659452     0.006607029  
    723000   0.052015839   -0.79652038     0.038029195   -0.68051777     0.0026706385 
    724000   0.053694929   -0.79545984     0.03828772    -0.67668169     0.00044217919
    725000   0.05206842    -0.79499308     0.040145253   -0.67679559     0.011728384  
    726000   0.051315764   -0.79584094     0.038025014   -0.68089194     0.015307524  
    727000   0.052355778   -0.79369638     0.040165378   -0.675048       0.024608388  
    728000   0.052787647   -0.79388731     0.041851372   -0.67290555     0.0054928995 
    729000   0.055120683   -0.79412561     0.040192097   -0.67130583     0.025347998  
    730000   0.0540856     -0.7945111      0.040595062   -0.67283998     0.037972563  
    731000   0.05408167    -0.79477413     0.0398872     -0.67381676     0.014635624  
    732000   0.055495888   -0.79264423     0.042286974   -0.66716713     0.030494373  
    733000   0.053970276   -0.79136334     0.040414076   -0.67004608     0.01950852   
    734000   0.052182448   -0.79306555     0.040710208   -0.67413217     0.0041446026 
    735000   0.05354053    -0.79288054     0.040541097   -0.67208046     0.014103487  
    736000   0.053519381   -0.79394637     0.040849231   -0.67286986     0.015192657  
    737000   0.051712698   -0.7943951      0.039781478   -0.67709462     0.014844918  
    738000   0.053631058   -0.79376242     0.042267068   -0.67110067     0.0059380409 
    739000   0.053820083   -0.79260992     0.041876734   -0.67005514     0.014649003  
    740000   0.054707423   -0.79276789     0.042470856   -0.66828884     0.016822485  
    741000   0.054555771   -0.79320769     0.042233288   -0.66919354     0.011918745  
    742000   0.054315853   -0.79279205     0.040839069   -0.67053177     0.027697564  
    743000   0.05279413    -0.79235313     0.038601074   -0.67461195     0.014165473  
    744000   0.053403891   -0.79366047     0.040025795   -0.67358052     0.020205078  
[...]
   8293000   0.052285812   -0.81798088     0.042164288   -0.69743847     0.036303027  
   8294000   0.053822973   -0.81528148     0.042424351   -0.69217475     0.063100364  
   8295000   0.054995014   -0.81552191     0.043060712   -0.6900219      0.038833947  
   8296000   0.057404017   -0.81545522     0.042182703   -0.68722204     0.012720848  
   8297000   0.056424229   -0.81488803     0.044642551   -0.68566374     0.062661296  
   8298000   0.054456663   -0.81559581     0.041895934   -0.69206758     0.015809578  
   8299000   0.054446497   -0.81367425     0.042813665   -0.68924353     0.023753784  
   8300000   0.053498622   -0.81569726     0.043914203   -0.69158689     0.028889794  
   8301000   0.057327949   -0.81600985     0.044140039   -0.68593337     0.038431403  
   8302000   0.054690288   -0.81285921     0.043146937   -0.68772977     0.017816108  
   8303000   0.05352642    -0.81413594     0.043487358   -0.69041076     0.03739733   
   8304000   0.053873096   -0.81601578     0.045974039   -0.68928423     0.041582578  
   8305000   0.053942817   -0.81232249     0.04267572    -0.68878474     0.028488585  
   8306000   0.053202593   -0.81515621     0.046673845   -0.68872996     0.014214543  
   8307000   0.054551876   -0.81457718     0.0441677     -0.68863446     0.041961586  
   8308000   0.054095818   -0.81512171     0.044545283   -0.68948505     0.018964282  
   8309000   0.055913531   -0.81355726     0.040316187   -0.68942489     0.04859721   
   8310000   0.054519928   -0.81228634     0.043930563   -0.68662864     0.051329646  
   8311000   0.053186636   -0.81344342     0.045162295   -0.68855264     0.033089669  
   8312000   0.055437107   -0.81412292     0.044290842   -0.68673007     0.044884843  
   8313000   0.055674889   -0.81538257     0.046552193   -0.68537192     0.038854074  
   8314000   0.054383329   -0.81226248     0.042561299   -0.68817882     0.050221095  
   8315000   0.054956741   -0.81430665     0.043087702   -0.68883702     0.031365116  
   8316000   0.05384349    -0.81522609     0.042362552   -0.69215041     0.02931104   
   8317000   0.053295646   -0.81320172     0.042246677   -0.69106315     0.014132946  
   8318000   0.053821748   -0.81616099     0.042072176   -0.69340828     0.036188714  
   8319000   0.053382531   -0.81373024     0.040647908   -0.6930602      0.031991192  
   8320000   0.052658548   -0.81360607     0.044180496   -0.69048871     0.019663931  
   8321000   0.053565259   -0.81307119     0.041581123   -0.69119402     0.052895272  
   8322000   0.054671215   -0.81450029     0.041065449   -0.69148092     0.030249763  
   8323000   0.055519542   -0.81355653     0.040037803   -0.69029314     0.050133401  
   8324000   0.054338927   -0.81465787     0.043549237   -0.68965283     0.023065252  
   8325000   0.053863222   -0.81491965     0.043239402   -0.69093754     0.017715142  
   8326000   0.053407352   -0.81262353     0.041397427   -0.69116676     0.041911279  
   8327000   0.052896994   -0.81445666     0.043758982   -0.69140337     0.045096294  
   8328000   0.055392138   -0.81407635     0.042594205   -0.68844754     0.017983744  
   8329000   0.054495237   -0.81448456     0.042988479   -0.68980596     0.020756482  
   8330000   0.05287347    -0.81484813     0.042616357   -0.69297274     0.024756558  
   8331000   0.05470817    -0.81546834     0.043127871   -0.69033116     0.01963208   
   8332000   0.055074234   -0.81386481     0.043840519   -0.68746624     0.022340627  
   8333000   0.052718447   -0.81397731     0.040475722   -0.69447494     0.0059674927 
   8334000   0.05293738    -0.81479982     0.042930029   -0.69251496     0.019188654  
   8335000   0.053685287   -0.81544498     0.043334957   -0.69163405     0.027400677  
   8336000   0.055165849   -0.81609594     0.043225081   -0.69017547     0.012302898  
   8337000   0.05650686    -0.81718582     0.040906344   -0.69157387     0.045272069  
   8338000   0.052488396   -0.81567566     0.043847111   -0.69314675     0.047654664  
   8339000   0.053890408   -0.81552408     0.042452028   -0.69228859     0.04480839   
   8340000   0.054606749   -0.81523026     0.04150917    -0.69186381     0.025696928  
   8341000   0.053871721   -0.81540979     0.044932968   -0.68972137     0.024290586  
   8342000   0.055156863   -0.81437528     0.043485211   -0.68820815     0.028868892  
   8343000   0.056599418   -0.81317863     0.045547833   -0.68278644     0.021169792  
   8344000   0.052463733   -0.81660046     0.042906767   -0.69504886     0.02451372   
   8345000   0.053021437   -0.81562181     0.041856878   -0.69428409     0.026359273  
   8346000   0.051966356   -0.81682703     0.041750789   -0.69717699     0.012394009  
   8347000   0.054604243   -0.81674756     0.044379071   -0.69051497     0.0048919878 
   8348000   0.054137447   -0.81605055     0.043106476   -0.6917903      0.0021829972 
   8349000   0.054313987   -0.81592917     0.044452672   -0.69005808     0.021506035  
   8350000   0.054459515   -0.81661767     0.044537174   -0.69044393     0.025146566  
   8351000   0.055644581   -0.81605319     0.041633613   -0.69100656     0.029835218  
   8352000   0.054667666   -0.81362656     0.045264073   -0.68641389     0.011868011  
   8353000   0.055049992   -0.81483994     0.042509853   -0.68980837     0.040351226  
   8354000   0.053865983   -0.81546143     0.04397229    -0.69074229     0.025122692  
   8355000   0.054275408   -0.81366715     0.042651027   -0.68965553     0.024387393  
   8356000   0.052690207   -0.81406229     0.042084931   -0.69299304     0.028988367  
   8357000   0.053850978   -0.81394259     0.041693194   -0.69152504     0.02939833   
   8358000   0.055681626   -0.81422392     0.04340931    -0.68734605     0.021059909  
   8359000   0.056245713   -0.8152764      0.042929094   -0.68803317     0.019778907  
   8360000   0.051902605   -0.81654524     0.042826571   -0.69591499     0.036750551  
   8361000   0.055686752   -0.81436366     0.043223173   -0.68766425    -0.001067952  
   8362000   0.055014063   -0.81421692     0.04481145    -0.68693762     0.0073851721 
   8363000   0.054603738   -0.81527342     0.041789391   -0.69163126     0.010994618  
   8364000   0.052150526   -0.81137946     0.043770307   -0.68943383     0.007577201  
   8365000   0.056292094   -0.81472771     0.044293408   -0.68605064     0.019320199  
   8366000   0.053873366   -0.81698723     0.043419216   -0.6928101      0.0081836458 
   8367000   0.054930962   -0.8139133      0.041851968   -0.68971805     0.003819055  
   8368000   0.054517682   -0.814258       0.04406192    -0.68847231     0.04804888   
   8369000   0.055982981   -0.81586494     0.043655475   -0.68828917     0.024268085  
   8370000   0.053744622   -0.81314908     0.042610291   -0.68997386     0.040110497  
   8371000   0.053688462   -0.81225544     0.040911843   -0.69086286     0.027932926  
   8372000   0.055338808   -0.81607775     0.042087803   -0.69103529     0.03263292   
   8373000   0.054121038   -0.81205908     0.043050465   -0.68787944     0.012875975  
   8374000   0.054848694   -0.81520702     0.04511252    -0.68787454     0.033122823  
   8375000   0.055573957   -0.81511729     0.041373492   -0.69043664     0.030487067  
   8376000   0.055901622   -0.81427123     0.042860513   -0.68761239     0.070208805  
   8377000   0.053925467   -0.8151472      0.043931548   -0.69037964     0.0092472072 
   8378000   0.05446885    -0.81450246     0.041611264   -0.69124063     0.021587464  
   8379000   0.051873488   -0.81574172     0.042697214   -0.69528448     0.020169312  
   8380000   0.054754932   -0.81306087     0.043811582   -0.68716988     0.014305647  
   8381000   0.05578881    -0.81421996     0.043296903   -0.68729383     0.022373393  
   8382000   0.055226649   -0.81346686     0.042335681   -0.68834465     0.03943231   
   8383000   0.055398944   -0.81647479     0.041611437   -0.69181855     0.025495229  
   8384000   0.053324663   -0.81578967     0.042145416   -0.69370886     0.027690332  
   8385000   0.054528665   -0.81337719     0.042066342   -0.68957062     0.022165001  
   8386000   0.055257581   -0.81634796     0.042864353   -0.69065071     0.003571194  
   8387000   0.054209986   -0.81501793     0.04345641    -0.690299       0.016147951  
   8388000   0.053540114   -0.81630815     0.041945039   -0.69410476     0.021919935  
   8389000   0.053555451   -0.81374543     0.043893625   -0.68957046     0.0098111154 
   8390000   0.054561319   -0.81445283     0.043236857   -0.6894268      0.0029216724 
   8391000   0.053870359   -0.81634601     0.040889702   -0.6947029      0.0082666508 
   8392000   0.054635591   -0.81688637     0.043174939   -0.69181091     0.015560766  
   8393000   0.055118714   -0.81365849     0.042569227   -0.68846453    -0.002651516  
   8394000   0.054400769   -0.81553275     0.043414749   -0.69056949    -0.003410717  
   8395000   0.052296783   -0.81417601     0.042397053   -0.69338439     0.012451532  
   8396000   0.053592286   -0.81458189     0.042640614   -0.69160471     0.015689655  
   8397000   0.056906886   -0.81528449     0.043938593   -0.68604064     0.023624124  
   8398000   0.055183508   -0.81545836     0.042383502   -0.690353       0.027570688  
   8399000   0.056326866   -0.81429621     0.04143348    -0.68842694     0.024084495  
   8400000   0.054280032   -0.81490463     0.042139473   -0.69139764     0.022461627  
   8401000   0.054759546   -0.81558111     0.041769097   -0.69172569     0.022014385  
   8402000   0.053251604   -0.81279578     0.042676502   -0.69029341     0.025094067  
   8403000   0.054587046   -0.81467534     0.041368553   -0.69147904     0.020043045  
   8404000   0.05597135    -0.815457       0.040508601   -0.69104554     0.033682431  
   8405000   0.053079503   -0.81493564     0.04235262    -0.69301513     0.018800771  
   8406000   0.054308592   -0.81629439     0.042641873   -0.69224218     0.0077177129 
   8407000   0.055245235   -0.81460192     0.04274694    -0.68904059     0.021409691  
   8408000   0.055785654   -0.81503304     0.042456866   -0.68895168     0.030105828  
   8409000   0.053349919   -0.81414828     0.043099277   -0.69107576     0.015143562  
   8410000   0.053475658   -0.81381101     0.042981359   -0.69066792     0.020595531  
   8411000   0.054807993   -0.81381267     0.043695022   -0.6879587      0.014529981  
   8412000   0.054782116   -0.81564665     0.044274449   -0.68925204     0.0071387478 
   8413000   0.055254651   -0.81604415     0.042387341   -0.6908283      0.02140829   
   8414000   0.053747259   -0.81644001     0.044444912   -0.69142622     0.012314129  
   8415000   0.055745665   -0.81556709     0.042647421   -0.68935512     0.013221212  
   8416000   0.053476082   -0.81440265     0.04284657    -0.6913937      0.0010730188 
   8417000   0.054633451   -0.81420916     0.041624672   -0.69068718     0.0016610385 
   8418000   0.053327284   -0.81339033     0.046084345   -0.68736666     0.015153487  
   8419000   0.054406865   -0.81377383     0.044567462   -0.68764872     0.012091276  
   8420000   0.054433477   -0.81698491     0.042758563   -0.69262881     0.013532529  
   8421000   0.053303479   -0.81522228     0.042219975   -0.69309867    -0.0012446387 
   8422000   0.054953882   -0.81313332     0.041648189   -0.68910749     0.040078799  
   8423000   0.055382562   -0.81396831     0.043192732   -0.68775533     0.023306324  
   8424000   0.052612369   -0.81427763     0.043158535   -0.69225145     0.0038097537 
   8425000   0.052702955   -0.81544003     0.042452254   -0.69398435     0.032493278  
   8426000   0.052711561   -0.81451744     0.042319179   -0.69318193     0.015910035  
   8427000   0.054127834   -0.81553642     0.041965508   -0.69243155     0.032148919  
   8428000   0.054735885   -0.81349753     0.04400556    -0.68744111     0.023753681  
   8429000   0.055097004   -0.81459387     0.041897264   -0.69010442     0.0086276282 
   8430000   0.05718795    -0.81584364     0.042654779   -0.68746228     0.00087975004
   8431000   0.055474229   -0.81352396     0.042617866   -0.68774843     0.020889908  
   8432000   0.05295565    -0.81407888     0.042378803   -0.69231785     0.039968936  
   8433000   0.052532302   -0.81651613     0.043273761   -0.69449475     0.031658015  
   8434000   0.052916177   -0.81579275     0.041507485   -0.69496221     0.015227226  
   8435000   0.054190741   -0.81673336     0.043367509   -0.69213218     0.016861904  
   8436000   0.053822794   -0.81646127     0.04188325    -0.69389591     0.012724885  
   8437000   0.054730084   -0.813921       0.041701883   -0.69017696     0.015300682  
   8438000   0.05519613    -0.81374734     0.043661842   -0.68734472     0.013074429  
   8439000   0.053090579   -0.81368264     0.0444374     -0.68966075     0.036123365  
   8440000   0.053812778   -0.81530139     0.041703515   -0.69293079     0.019944372  
   8441000   0.053210447   -0.81611445     0.041957415   -0.69439286     0.012054828  
   8442000   0.051847171   -0.81477618     0.040465237   -0.69659037     0.0080683853 
   8443000   0.052268317   -0.8165658      0.042644509   -0.6955694      0.0060569305 
   8444000   0.053137488   -0.8169353      0.040927062   -0.69635343     0.015789897  
   8445000   0.053385369   -0.81648535     0.042576675   -0.69388229     0.0028122201 
   8446000   0.053804894   -0.81541594     0.041192243   -0.69356842     0.023737606  
   8447000   0.054514858   -0.81525694     0.041812773   -0.69172464     0.0037757798 
   8448000   0.054682623   -0.81403736     0.042026148   -0.6900402      0.025257082  
   8449000   0.052989929   -0.81388399     0.04107015    -0.69338023     0.016214844  
   8450000   0.053599341   -0.81420954     0.04394157    -0.68992083     0.029835821  
   8451000   0.054098775   -0.81269189     0.044597386   -0.68699869     0.028329446  
   8452000   0.054952904   -0.81429827     0.04206877    -0.68985332     0.02167381   
   8453000   0.05446899    -0.81417479     0.043520759   -0.68900326     0.045427869  
   8454000   0.054502918   -0.81599737     0.042474674   -0.69182106     0.016448457  
   8455000   0.051778551   -0.81433836     0.044035828   -0.69268481     0.01379303   
   8456000   0.053595174   -0.81370438     0.042352349   -0.69101113     0.01871212   
   8457000   0.055475342   -0.81408074     0.043090578   -0.68783083     0.016157992  
   8458000   0.055273793   -0.81446198     0.040604642   -0.69100014     0.023621556  
   8459000   0.055249887   -0.81398639     0.041458307   -0.68970672    -0.0047218906 
   8460000   0.056654283   -0.81393257     0.043402797   -0.68560318     0.0055453061 
   8461000   0.055711077   -0.81415689     0.042540088   -0.6881041      0.017473547  
   8462000   0.052749961   -0.81279154     0.04275779    -0.69095986    -0.00094202366
   8463000   0.054121643   -0.81468396     0.042911758   -0.69064211    -0.010071535  
   8464000   0.054926974   -0.81565523     0.043927945   -0.68938998     0.015727798  
   8465000   0.052084074   -0.81529944     0.042928461   -0.69429527     0.019491957  
   8466000   0.05307897    -0.81482063     0.042917492   -0.69233605     0.013047767  
   8467000   0.054348806   -0.81516029     0.044003774   -0.68968591     0.027800796  
   8468000   0.053401369   -0.81573301     0.042080489   -0.69360215     0.023263768  
   8469000   0.053231764   -0.81647323     0.042048972   -0.69462812    -0.0028130363 
   8470000   0.055986378   -0.81532638     0.042493541   -0.68890745     0.0046455087 
   8471000   0.055588448   -0.81575775     0.044074096   -0.68835478    -0.0020367074 
   8472000   0.055957905   -0.81391268     0.044536256   -0.68549372     0.026844574  
   8473000   0.056335381   -0.81706584     0.042578712   -0.69003858    -0.001760911  
   8474000   0.053426698   -0.81631288     0.042471459   -0.69375308    -0.012032018  
   8475000   0.054397391   -0.81460661     0.042077983   -0.69098518     0.014188594  
   8476000   0.054423342   -0.81392118     0.041214688   -0.69112415     0.0072733571 
   8477000   0.052794451   -0.81312638     0.043056097   -0.6909297     -0.0076855428 
   8478000   0.053984008   -0.81563364     0.044049245   -0.69066063     0.025685886  
   8479000   0.053796522   -0.81389452     0.043146545   -0.69010525     0.009074631  
   8480000   0.053966456   -0.81683686     0.043435464   -0.69250394    -0.0011229664 
   8481000   0.054062831   -0.81330746     0.042545673   -0.68971986     0.026827721  
   8482000   0.055015257   -0.81440788     0.042377534   -0.6895607      0.0062718078 
   8483000   0.053005025   -0.81547585     0.044200716   -0.69181889     0.020627746  
   8484000   0.053193163   -0.81339959     0.043781813   -0.68987951     0.011473254  
   8485000   0.055005237   -0.81536449     0.04373673    -0.68917313     0.023825368  
   8486000   0.053894539   -0.81413035     0.045217802   -0.6881229      0.023343801  
   8487000   0.054436764   -0.8145418      0.042981543   -0.68995779     0.0018876241 
   8488000   0.051908433   -0.81427094     0.041189599   -0.69526892     0.0063199148 
   8489000   0.054432102   -0.81696621     0.044800792   -0.69056994    -0.0028951276 
   8490000   0.057007175   -0.81388225     0.044462213   -0.68396444     0.01812429   
   8491000   0.053371413   -0.81628835     0.046040213   -0.69024266    -0.0066364839 
   8492000   0.055252224   -0.81494517     0.043897377   -0.68822292     0.0057595605 
   8493000   0.054060163   -0.8146186      0.042559993   -0.69102068     0.0019223529 
   8494000   0.054486388   -0.81650607     0.042137063   -0.69269216     0.0068328473 
   8495000   0.053735772   -0.81580657     0.041612644   -0.69364227     0.022137553  
   8496000   0.05272137    -0.81567423     0.041741436   -0.69490176     0.0073367718 
   8497000   0.055196177   -0.81554474     0.042303873   -0.69050001     0.012837394  
   8498000   0.055776574   -0.81354618     0.042461101   -0.68747419     0.0042593662 
   8499000   0.053510753   -0.81556971     0.041978468   -0.69337689     0.018983377  
   8500000   0.052807657   -0.8162782      0.043000153   -0.69411767     0.024961515  
Loop time of 2810.9 on 8 procs for 8000000 steps with 1550 atoms

Performance: 245899.697 tau/day, 2846.061 timesteps/s, 4.411 Matom-step/s
93.3% CPU use with 8 MPI tasks x 1 OpenMP threads

MPI task timing breakdown:
Section |  min time  |  avg time  |  max time  |%varavg| %total
---------------------------------------------------------------
Pair    | 433.05     | 512.63     | 613.4      | 290.6 | 18.24
Bond    | 76.354     | 87.69      | 100.64     |  93.8 |  3.12
Neigh   | 3.296      | 3.3006     | 3.3034     |   0.1 |  0.12
Comm    | 433.73     | 544.57     | 634.65     | 315.3 | 19.37
Output  | 18.222     | 18.552     | 18.845     |   4.9 |  0.66
Modify  | 1617.5     | 1619.7     | 1624.9     |   5.2 | 57.62
Other   |            | 24.42      |            |       |  0.87

Nlocal:         193.75 ave         400 max           0 min
Histogram: 1 1 0 1 1 1 1 0 1 1
Nghost:        534.125 ave         589 max         506 min
Histogram: 2 1 2 0 1 1 0 0 0 1
Neighs:              0 ave           0 max           0 min
Histogram: 8 0 0 0 0 0 0 0 0 0
FullNghs:      6913.75 ave       16529 max           0 min
Histogram: 1 1 1 2 0 1 0 1 0 1

Total # of neighbors = 55310
Ave neighs/atom = 35.683871
Ave special neighs/atom = 2.1612903
Neighbor list builds = 5970
Dangerous builds = 0

# Write data for deformation

write_restart ${Dir}/${file6_name}
write_restart /home/franvt/GitRepos/molDynLammps/polymericGels/gel-bonds-1/data/0.050.30.05500-2026-01-20-121005/${file6_name}
write_restart /home/franvt/GitRepos/molDynLammps/polymericGels/gel-bonds-1/data/0.050.30.05500-2026-01-20-121005/data.hydrogel
System init for write_restart ...
WARNING: Using a manybody potential with bonds/angles/dihedrals and special_bond exclusions (src/pair.cpp:250)
Hybrid pair style last /omp style table/omp
Last active /omp style is angle_style harmonic/omp
Total wall time: 0:49:17
