LAMMPS (22 Jul 2025)
OMP_NUM_THREADS environment is not set. Defaulting to 1 thread.
  using 1 OpenMP thread(s) per MPI task
package omp 0
using multi-threaded neighbor list subroutines
# Input Script of lammps for assembly simulation of polimeric network.
# Main code is based on: https://github.com/PipeB62/Hydrogel-Simulation
# Patchy particles are with bond style.

# Felipe Benavides modified by Fco. Vazquez

# Initialization
units lj
dimension 3
boundary p p p

# Styles of atoms and that stuff
atom_style full
bond_style harmonic
angle_style harmonic
pair_style hybrid/overlay zero 0.0 lj/cut/omp 1.12 table/omp linear 5000000 threebody/table

newton on

# Create simulaiton box
region simulation_box block -$L $L -$L $L -$L $L
region simulation_box block -9.796741 $L -$L $L -$L $L
region simulation_box block -9.796741 9.796741 -$L $L -$L $L
region simulation_box block -9.796741 9.796741 -9.796741 $L -$L $L
region simulation_box block -9.796741 9.796741 -9.796741 9.796741 -$L $L
region simulation_box block -9.796741 9.796741 -9.796741 9.796741 -9.796741 $L
region simulation_box block -9.796741 9.796741 -9.796741 9.796741 -9.796741 9.796741
# N-atom-types region-ID keyword value Is necesesary the extra/special/per/atom (# of special neighbors per atom)
create_box 4 simulation_box     bond/types 1     angle/types 2     extra/bond/per/atom 10     extra/angle/per/atom 6     extra/special/per/atom 10
Created orthogonal box = (-9.796741 -9.796741 -9.796741) to (9.796741 9.796741 9.796741)
  2 by 2 by 2 MPI processor grid

# Atom types
mass 1 1.0      # CL
mass 2 1.0      # MO
mass 3 1.0      # PA
mass 4 1.0      # PB

# Coefficients
include potential.in
# Script with the pair-wise interaction and bonds between particles

bond_coeff 1 100.0 0.45
angle_coeff 1 100.0 180
angle_coeff 2 100.0 109.4712
pair_coeff 1 3 zero 0.5
pair_coeff 1 4 zero 0.5
pair_coeff 2 3 zero 0.5
pair_coeff 2 4 zero 0.5
pair_coeff 3 3 zero 0.5
pair_coeff 1 1 lj/cut/omp 1.0 1.0 1.12
pair_coeff 2 2 lj/cut/omp 1.0 1.0 1.12
pair_coeff 1 2 lj/cut/omp 1.0 1.0 1.12
pair_coeff 3 4 table/omp sysFiles/pachTab.table POT 0.6 # sw/omp sysFiles/patchyPot.sw NULL NULL PA PB
Reading pair table potential file sysFiles/pachTab.table with DATE: 2024-07-08
WARNING: 7 of 1000000 force values in table POT are inconsistent with -dE/dr.
WARNING:  Should only be flagged at inflection points (src/pair_table.cpp:469)
pair_coeff 4 4 table/omp sysFiles/pachTab.table POT 0.6 # sw/omp sysFiles/patchyPot.sw NULL NULL PA PB
Reading pair table potential file sysFiles/pachTab.table with DATE: 2024-07-08
WARNING: 7 of 1000000 force values in table POT are inconsistent with -dE/dr.
WARNING:  Should only be flagged at inflection points (src/pair_table.cpp:469)
pair_coeff * * threebody/table swapMech.3b NULL NULL PA PB
pair_modify pair lj/cut/omp shift yes


# Molecules
include molecules.in
# Script with all molecule information and create groups for computes

# Read the molecule information
molecule CL sysFiles/molecule.patchy.CL
Read molecule template CL:
# Patchy Cross-Linker
  1 molecules
  0 fragments
  0 bodies
  5 atoms with max type 3
  4 bonds with max type 1
  6 angles with max type 2
  0 dihedrals with max type 0
  0 impropers with max type 0
molecule MO sysFiles/molecule.patchy.MO
Read molecule template MO:
# Patchy Monomer
  1 molecules
  0 fragments
  0 bodies
  3 atoms with max type 4
  2 bonds with max type 1
  1 angles with max type 1
  0 dihedrals with max type 0
  0 impropers with max type 0

# Introduce the molecules
# ID style args keyword arg
region spawn_box block -$L $L -$L $L -$L $L
region spawn_box block -9.796741 $L -$L $L -$L $L
region spawn_box block -9.796741 9.796741 -$L $L -$L $L
region spawn_box block -9.796741 9.796741 -9.796741 $L -$L $L
region spawn_box block -9.796741 9.796741 -9.796741 9.796741 -$L $L
region spawn_box block -9.796741 9.796741 -9.796741 9.796741 -9.796741 $L
region spawn_box block -9.796741 9.796741 -9.796741 9.796741 -9.796741 9.796741

# create_atoms type style args keyword values
# style_random: N seed region-ID
# keyword_mol: template-ID seed
# keyword_overlap: overlap value = only insert if at least this distance from all existing atoms
# keyword_maxtry: maxtry value = number of attempts to insert a particle before failure
create_atoms 0 random ${NCL} ${seed1} spawn_box mol CL ${seed1} overlap 1.0 maxtry 5000 #xls
create_atoms 0 random 25 ${seed1} spawn_box mol CL ${seed1} overlap 1.0 maxtry 5000 
create_atoms 0 random 25 3234 spawn_box mol CL ${seed1} overlap 1.0 maxtry 5000 
create_atoms 0 random 25 3234 spawn_box mol CL 3234 overlap 1.0 maxtry 5000 
Created 125 atoms
  using lattice units in orthogonal box = (-9.796741 -9.796741 -9.796741) to (9.796741 9.796741 9.796741)
  create_atoms CPU = 0.009 seconds
create_atoms 0 random ${NMO} ${seed2} spawn_box mol MO ${seed2} overlap 1.0 maxtry 5000 #mon
create_atoms 0 random 475 ${seed2} spawn_box mol MO ${seed2} overlap 1.0 maxtry 5000 
create_atoms 0 random 475 6321 spawn_box mol MO ${seed2} overlap 1.0 maxtry 5000 
create_atoms 0 random 475 6321 spawn_box mol MO 6321 overlap 1.0 maxtry 5000 
Created 1425 atoms
  using lattice units in orthogonal box = (-9.796741 -9.796741 -9.796741) to (9.796741 9.796741 9.796741)
  create_atoms CPU = 0.009 seconds

# Create patchy particles
group CrossLinker type 1 3
125 atoms in group CrossLinker
group Monomer type 2 4
1425 atoms in group Monomer
group Patches type 3 4
1050 atoms in group Patches
group CL type 1
25 atoms in group CL
group MO type 2
475 atoms in group MO
group PA type 3
100 atoms in group PA
group CM type 1 2
500 atoms in group CM

# Neighbor list
neighbor 1.8 bin # extra-distance style
#neigh_modify delay 0 every 1 check no
#neigh_modify exclude molecule/intra CrossLinker
#neigh_modify exclude molecule/intra Monomer

# COMPUTES

# Compute global kinetic and potential energy and temperature
compute t all temp
compute p all pressure t
compute ep all pe
compute ek all ke
variable eT equal etotal
variable eB equal ebond
variable eA equal eangle
variable eM equal emol
variable ec equal ecouple
variable eC equal econserve

# Potencial energy per pair-wise interaction
compute wcaPair all pair lj/cut/omp epair
compute patchPair all pair table/omp epair
compute swapPair all pair threebody/table epair

# Compute the pressure
compute press all pressure t ke virial
compute pressVirial all pressure t virial
compute pressVirialMod all pressure t pair bond angle

# Computes for the stress
compute cstress all stress/atom t ke pair bond angle
compute cstressVirial all stress/atom t virial
compute cstressVirialMod all stress/atom t pair bond angle
compute stress all reduce sum c_cstress[*]
compute stressVirial all reduce sum c_cstressVirial[*]
compute stressVirialMod all reduce sum c_cstressVirialMod[*]

# Displacement of the central particles
compute disp CM displace/atom
compute redDisp CM reduce ave c_disp[*] # All, because yes

# Get the number of central particles per cluster
compute clusters all aggregate/atom 0.6                             # Create the clusters
compute Nclpart CM chunk/atom c_clusters compress yes discard yes   # Get the number of clusters
compute clsize CM property/chunk Nclpart count                      # Counts the atoms in each chunk
compute idcl CM property/chunk Nclpart id                           # Get the ids of the clusters

# DUMPS and FIXES

thermo ${NsaveStress}
thermo 1000

# Save global energies and temperature
fix Energy all ave/time 1 ${Nsave} ${Nsave} c_t c_wcaPair c_patchPair c_swapPair c_ep c_ek v_eT v_ec v_eC c_p v_eB v_eA v_eM c_redDisp[*] file ${Dir}/${file1_name}
fix Energy all ave/time 1 1000 ${Nsave} c_t c_wcaPair c_patchPair c_swapPair c_ep c_ek v_eT v_ec v_eC c_p v_eB v_eA v_eM c_redDisp[*] file ${Dir}/${file1_name}
fix Energy all ave/time 1 1000 1000 c_t c_wcaPair c_patchPair c_swapPair c_ep c_ek v_eT v_ec v_eC c_p v_eB v_eA v_eM c_redDisp[*] file ${Dir}/${file1_name}
fix Energy all ave/time 1 1000 1000 c_t c_wcaPair c_patchPair c_swapPair c_ep c_ek v_eT v_ec v_eC c_p v_eB v_eA v_eM c_redDisp[*] file /home/franvt/GitRepos/molDynLammps/polymericGels/gel-bonds-1/data/0.050.30.05500-2026-01-23-152756/${file1_name}
fix Energy all ave/time 1 1000 1000 c_t c_wcaPair c_patchPair c_swapPair c_ep c_ek v_eT v_ec v_eC c_p v_eB v_eA v_eM c_redDisp[*] file /home/franvt/GitRepos/molDynLammps/polymericGels/gel-bonds-1/data/0.050.30.05500-2026-01-23-152756/system_assembly.fixf

# Save Pressure and Stress tensor
fix fixStress5 all ave/time 1 ${NsaveStress} ${NsaveStress} c_p c_press[*] c_pressVirial[*] c_pressVirialMod[*] c_stress[*] c_stressVirial[*] c_stressVirialMod[*] file ${Dir}/${file2_name}
fix fixStress5 all ave/time 1 1000 ${NsaveStress} c_p c_press[*] c_pressVirial[*] c_pressVirialMod[*] c_stress[*] c_stressVirial[*] c_stressVirialMod[*] file ${Dir}/${file2_name}
fix fixStress5 all ave/time 1 1000 1000 c_p c_press[*] c_pressVirial[*] c_pressVirialMod[*] c_stress[*] c_stressVirial[*] c_stressVirialMod[*] file ${Dir}/${file2_name}
fix fixStress5 all ave/time 1 1000 1000 c_p c_press[*] c_pressVirial[*] c_pressVirialMod[*] c_stress[*] c_stressVirial[*] c_stressVirialMod[*] file /home/franvt/GitRepos/molDynLammps/polymericGels/gel-bonds-1/data/0.050.30.05500-2026-01-23-152756/${file2_name}
fix fixStress5 all ave/time 1 1000 1000 c_p c_press[*] c_pressVirial[*] c_pressVirialMod[*] c_stress[*] c_stressVirial[*] c_stressVirialMod[*] file /home/franvt/GitRepos/molDynLammps/polymericGels/gel-bonds-1/data/0.050.30.05500-2026-01-23-152756/stress_assembly.fixf

# Save the global cluster information
fix 1 CM ave/time 1 1 ${Ndump} c_idcl c_clsize file ${Dir}/${file3_name} mode vector
fix 1 CM ave/time 1 1 1000 c_idcl c_clsize file ${Dir}/${file3_name} mode vector
fix 1 CM ave/time 1 1 1000 c_idcl c_clsize file /home/franvt/GitRepos/molDynLammps/polymericGels/gel-bonds-1/data/0.050.30.05500-2026-01-23-152756/${file3_name} mode vector
fix 1 CM ave/time 1 1 1000 c_idcl c_clsize file /home/franvt/GitRepos/molDynLammps/polymericGels/gel-bonds-1/data/0.050.30.05500-2026-01-23-152756/clust_assembly.fixf mode vector

# Save atom positions with cluster id
dump dumpID all custom ${Ndump} ${Dir}/traj/${file5_name} id mol c_clusters type x y z vx vy vz
dump dumpID all custom 1000 ${Dir}/traj/${file5_name} id mol c_clusters type x y z vx vy vz
dump dumpID all custom 1000 /home/franvt/GitRepos/molDynLammps/polymericGels/gel-bonds-1/data/0.050.30.05500-2026-01-23-152756/traj/${file5_name} id mol c_clusters type x y z vx vy vz
dump dumpID all custom 1000 /home/franvt/GitRepos/molDynLammps/polymericGels/gel-bonds-1/data/0.050.30.05500-2026-01-23-152756/traj/traj_assembly.*.dumpf id mol c_clusters type x y z vx vy vz
dump_modify dumpID pbc yes # remap atoms via periodic boundary conditions

# RUN SIMULATION

# Brownian Dynamics using Langevin Thermostat

timestep ${tstep}
timestep 0.001

fix VelVerlet all nve # Use Velocity Verlet integrator

# First elevate the temperature
fix ThermoLng all langevin 0.0 ${temp} ${damp} ${seed3} tally yes zero yes # Brownian Dynamics: langevin + nve
fix ThermoLng all langevin 0.0 0.05 ${damp} ${seed3} tally yes zero yes 
fix ThermoLng all langevin 0.0 0.05 1 ${seed3} tally yes zero yes 
fix ThermoLng all langevin 0.0 0.05 1 2010 tally yes zero yes 
run ${stepsheat}
run 500000
WARNING: Using a manybody potential with bonds/angles/dihedrals and special_bond exclusions (src/pair.cpp:250)
Hybrid pair style last /omp style table/omp
Last active /omp style is angle_style harmonic/omp
Neighbor list info ...
  update: every = 1 steps, delay = 0 steps, check = yes
  max neighbors/atom: 2000, page size: 100000
  master list distance cutoff = 2.92
  ghost atom cutoff = 2.92
  binsize = 1.46, bins = 14 14 14
  7 neighbor lists, perpetual/occasional/extra = 6 1 0
  (1) pair zero, perpetual, skip from (7)
      attributes: half, newton on, omp
      pair build: skip/omp
      stencil: none
      bin: none
  (2) pair lj/cut/omp, perpetual, skip from (7)
      attributes: half, newton on, omp
      pair build: skip/omp
      stencil: none
      bin: none
  (3) pair table/omp, perpetual, skip from (7)
      attributes: half, newton on, omp
      pair build: skip/omp
      stencil: none
      bin: none
  (4) pair threebody/table, perpetual, skip from (6)
      attributes: full, newton on, omp
      pair build: skip/omp
      stencil: none
      bin: none
  (5) compute aggregate/atom, occasional, copy from (6)
      attributes: full, newton on, omp
      pair build: copy
      stencil: none
      bin: none
  (6) neighbor class addition, perpetual
      attributes: full, newton on, omp
      pair build: full/bin/omp
      stencil: full/bin/3d
      bin: standard
  (7) neighbor class addition, perpetual, half/full from (6)
      attributes: half, newton on, omp
      pair build: halffull/newton/omp
      stencil: none
      bin: none
Per MPI rank memory allocation (min/avg/max) = 20.03 | 20.03 | 20.03 Mbytes
   Step          Temp          E_pair         E_mol          TotEng         Press     
         0   0              0.00041490155  0.15480456     0.15521947    -0.21361809   
      1000   0.038128237    0              0.00013757075  0.057293028    0.0036255212 
      2000   0.00015524756  8.543009e-08   0.020977048    0.021209855    0.068369326  
      3000   0.0053601671   0              0.0001566732   0.0081917366   0.0024773034 
      4000   0.00032043582  0              0.0030278828   0.0035082264  -0.026562159  
      5000   0.0011098552   0              0.00027894739  0.0019426561  -0.0005261401 
      6000   0.00052871377  0              0.00073390715  0.0015264661   0.0095531329 
      7000   0.00072896697  0              0.00040823029  0.0015009753  -1.2979742e-05
      8000   0.0007251149   0              0.00053299756  0.0016199682  -0.0032626071 
      9000   0.00081771509  1.3387704e-06  0.00052435467  0.0017514747   2.4759112e-06
     10000   0.00090243713  0              0.0006006103   0.0019533927   0.0011493598 
     11000   0.0010197323   0              0.00066288448  0.0021914962  -0.00042254769
     12000   0.0011051079   0              0.00072884253  0.0023854349  -0.00024522879
     13000   0.0011985165   0              0.00078137006  0.0025779849   0.00057614678
     14000   0.0013249056   0              0.00085482435  0.0028409006   0.00081224385
     15000   0.0014112991   0              0.00096232634  0.0030779093  -0.00010780047
     16000   0.0015343975   0              0.0010154688   0.0033155802  -0.00081771796
     17000   0.0016020278   4.7441589e-08  0.0010642477   0.0034657865   0.00030980887
     18000   0.0017598133   0              0.0011497192   0.003787736    0.0012942109 
     19000   0.0018430414   0              0.0012059735   0.003968752    5.7970273e-05
     20000   0.0019080305   0              0.0012946994   0.0041548986  -0.00044607826
     21000   0.001992366    5.7799363e-07  0.0013610759   0.0043482748   0.00069963965
     22000   0.0021283243  -3.6672612e-09  0.0014649008   0.0046553239   0.00056659963
     23000   0.0025735469  -0.0015218821   0.0017283014   0.004064249    0.00012610136
     24000   0.0024444094  -0.0016039619   0.0016864538   0.0037467405  -0.00025353478
     25000   0.0024681684  -0.0016016608   0.0016795706   0.0037777739  -0.00025316254
     26000   0.0025092316  -0.001589946    0.001707866    0.0038793392   0.00073864395
     27000   0.0030589285  -0.0031177114   0.002012252    0.0034799731   0.00066127919
     28000   0.002845273   -0.0031717067   0.0020052056   0.003098655   -0.00065030665
     29000   0.0028512639  -0.0032042003   0.0019482227   0.0030181589  -0.00057429635
     30000   0.0032344357  -0.0047618896   0.0020775691   0.0021642029  -0.00033739482
     31000   0.0030894149  -0.0048363168   0.0022389438   0.0020337595  -5.3009553e-05
     32000   0.0032581607  -0.0048324545   0.0021927205   0.0022443541   0.0004081845 
     33000   0.0032215756  -0.0048326584   0.0023286392   0.0023252265   0.00081874659
     34000   0.0040031854  -0.0075381178   0.0027834668   0.0012462531  -0.00038818505
     35000   0.0034571004  -0.0077706526   0.0024728762  -0.00011547145 -0.00047436738
     36000   0.0044781808  -0.010762873    0.002879389   -0.0011705465   0.00029027022
     37000   0.0046349367  -0.012733258    0.0026719396  -0.0031133985   0.0014358727 
     38000   0.003998545   -0.012685588    0.002635141   -0.004056499    0.00085337462
     39000   0.0042627611  -0.014426017    0.0027870632  -0.0052489372  -0.00031597353
     40000   0.004134619   -0.014466278    0.0026197665  -0.0056485844  -0.0001137876 
     41000   0.0039847584  -0.014424344    0.0027835834  -0.005667479    0.0012337074 
     42000   0.0041003877  -0.014461977    0.0027443035  -0.00557106     0.00093054757
     43000   0.0046610268  -0.016092878    0.0029636582  -0.0061421907  -0.00089918803
     44000   0.0050067312  -0.017410171    0.0032844405  -0.0066204791   0.00065734213
     45000   0.004455419   -0.017661738    0.0034852371  -0.0074976837   0.00065597604
     46000   0.0051730411  -0.018875657    0.0031358034  -0.0079852986   0.0012827956 
     47000   0.0048234191  -0.020213159    0.0036651187  -0.0093175793  -0.00014686758
     48000   0.0050129943  -0.020804911    0.0032635772  -0.010026693    0.0010465819 
     49000   0.0048960789  -0.02092223     0.003432082   -0.010150768    0.00069088756
     50000   0.0049235086  -0.020936616    0.0033882007  -0.010167917    0.00079825125
     51000   0.00492648    -0.020952896    0.0034339135  -0.01013403    -9.9449397e-06
     52000   0.0049640066  -0.020935875    0.0036265379  -0.0098681306   0.0005278417 
     53000   0.0051770599  -0.020929367    0.003623604   -0.0095451832   0.00036990358
     54000   0.0052657508  -0.020944248    0.0034947157  -0.0095560024   0.00086037796
     55000   0.0060853671  -0.023751249    0.0038114575  -0.01081763    -0.0011225271 
     56000   0.0062538265  -0.025626116    0.0044453757  -0.011806053   -0.00027783503
     57000   0.0059547504  -0.025535002    0.0040988231  -0.012509816    0.00078965433
     58000   0.0058286135  -0.025713989    0.0042028718  -0.012773837    0.00087809502
     59000   0.0059676236  -0.025765081    0.004081245   -0.012738176   -0.00083566962
     60000   0.0062263966  -0.028179923    0.0047460447  -0.014100309   -0.00074142725
     61000   0.0059818772  -0.028790768    0.0043156234  -0.015508118    0.0019284784 
     62000   0.0067672005  -0.030551642    0.0044656802  -0.01594171     0.00085783845
     63000   0.0061759127  -0.030546407    0.0042984406  -0.016990074    0.00022777165
     64000   0.006368309   -0.030614988    0.0043737853  -0.016694903    0.00091681367
     65000   0.006979178   -0.03180092     0.0046508149  -0.016688092   -0.0010421423 
     66000   0.006667507   -0.033497093    0.0049865955  -0.018515689   -0.00018351472
     67000   0.0070366041  -0.035029979    0.0048388929  -0.019642989    0.001288804  
     68000   0.0066585769  -0.035294355    0.0049549037  -0.020358029    0.00035402746
     69000   0.00774469    -0.03695675     0.0046795276  -0.020667683    0.00070925206
     70000   0.0075509027  -0.04064005     0.0055705939  -0.02375041    -0.0018496157 
     71000   0.0080932312  -0.043399417    0.005499981   -0.025767421    0.0017198277 
     72000   0.0073398181  -0.043454734    0.0052650805  -0.02718703     0.0016786875 
     73000   0.0082095926  -0.045840785    0.0054637154  -0.028070625    0.0004600615 
     74000   0.0077800166  -0.046450173    0.0052802499  -0.029507427   -0.00041996995
     75000   0.0074292031  -0.046591614    0.0053660244  -0.030088975   -0.00041463259
     76000   0.0080027951  -0.048257038    0.0055370475  -0.030723543    0.0020339269 
     77000   0.0076748602  -0.048277163    0.0053867585  -0.031385542    0.001708909  
     78000   0.008144959   -0.049644101    0.0054825338  -0.03195201    -0.00091277784
     79000   0.0074898826  -0.051124451    0.005852221   -0.034044654    0.00045086305
     80000   0.0082122728  -0.052183593    0.0058364175  -0.034036714   -0.00035149015
     81000   0.0085000032  -0.054556112    0.0056781302  -0.036136202    0.00015970755
     82000   0.0082185397  -0.056153057    0.0062090051  -0.037624196    0.00014269859
     83000   0.0096146426  -0.058705174    0.006278348   -0.038014166    0.00037179401
     84000   0.0092357251  -0.059354831    0.005857861   -0.03965232     0.00047488718
     85000   0.0081015621  -0.059531149    0.0058980691  -0.041488577   -9.8837603e-05
     86000   0.0088965743  -0.061422849    0.0060647872  -0.04202181    -0.00091965681
     87000   0.008721849   -0.062409196    0.0064831676  -0.042851695    0.0029836841 
     88000   0.010043441   -0.06582373     0.0067625536  -0.044005735    0.0013747767 
     89000   0.0095545455  -0.066951882    0.0061576629  -0.046471648    0.00010086466
     90000   0.010147375   -0.069095769    0.0060937386  -0.047790787    0.00022778544
     91000   0.0092176955  -0.069033274    0.0067508475  -0.048464804    0.00063674755
     92000   0.0095120861  -0.070714241    0.0067916841  -0.049663633    0.0015618703 
     93000   0.0092714691  -0.070794768    0.006522662   -0.050373875    0.0014469555 
     94000   0.0093884616  -0.070797593    0.0067830233  -0.049940963    0.0010637428 
     95000   0.010528898   -0.073839706    0.0066369646  -0.051419583    0.0018230506 
     96000   0.0097243418  -0.073761103    0.0063165777  -0.052867424   -0.0007493365 
     97000   0.010361445   -0.075603985    0.0070295896  -0.053042255    0.00013826626
     98000   0.010936829   -0.078282777    0.0072153604  -0.054672758    0.00022203233
     99000   0.010007058   -0.07857286     0.0069755328  -0.056596425   -0.00061588076
    100000   0.010245952   -0.0787175      0.0072617911  -0.056096696   -0.00060968091
    101000   0.010321905   -0.080184721    0.006843532   -0.05786832    -2.6514343e-05
    102000   0.0098863423  -0.080469564    0.0071374487  -0.05851217     0.0013675838 
    103000   0.011470406   -0.083627393    0.0076160969  -0.058816787    0.00050325661
    104000   0.011527542   -0.085612898    0.0075690398  -0.060763701    0.0024648261 
    105000   0.011119937   -0.087780608    0.0078257665  -0.063285697    0.00052593822
    106000   0.01170929    -0.09016856     0.0077799722  -0.064835983   -0.0010794652 
    107000   0.011522565   -0.09285923     0.0077139178  -0.067872615    0.0014563314 
    108000   0.013520888   -0.099770544    0.0085623327  -0.070939963    0.0011599371 
    109000   0.011529412   -0.1033862      0.0088490306  -0.077254211    9.9780679e-05
    110000   0.012026175   -0.10566135     0.0082480033  -0.079385721    0.00075832342
    111000   0.011215969   -0.10599615     0.0076627336  -0.081520322    0.00083506577
    112000   0.011155031   -0.10616894     0.0077189127  -0.081728273   -0.00026488348
    113000   0.011436224   -0.10621597     0.0077084037  -0.081364294    7.3577918e-05
    114000   0.012672019   -0.11039043     0.0085998253  -0.082794837    0.0012530127 
    115000   0.012153045   -0.11208671     0.0085175372  -0.085351362   -6.4095154e-05
    116000   0.012049636   -0.11466189     0.0086054506  -0.087993642   -0.0015391253 
    117000   0.012448626   -0.11856837     0.0086705824  -0.091236899    0.00087683124
    118000   0.012229863   -0.12036939     0.0083479897  -0.093688445   -0.00086907963
    119000   0.012136832   -0.12031809     0.0084677159  -0.093656872    0.00090260424
    120000   0.012850833   -0.12015162     0.0082134856  -0.092674322    0.0029486768 
    121000   0.012133011   -0.1212608      0.0088141104  -0.094258915    0.00085148863
    122000   0.012309419   -0.12180118     0.0084391605  -0.094909805    0.0012274346 
    123000   0.011969356   -0.12178486     0.0082459896  -0.095596422   -0.00052435665
    124000   0.011917139   -0.12183752     0.0085679895  -0.095405351   -0.00014992334
    125000   0.013810645   -0.12483978     0.0084528247  -0.095684349    0.00038337641
    126000   0.013162489   -0.1248949      0.0088166557  -0.096347245    0.00061724839
    127000   0.013477792   -0.12597231     0.0091390848  -0.096629576    0.00020966591
    128000   0.01304847    -0.12747945     0.0094015579  -0.098517816    0.0025029455 
    129000   0.013270971   -0.12827776     0.0091477568  -0.099236393    0.0013535992 
    130000   0.013394805   -0.13047414     0.0095468545  -0.10084805     0.00027284696
    131000   0.014528983   -0.13411999     0.0096563325  -0.10268425     0.0012750173 
    132000   0.013441426   -0.1356388      0.0096708622  -0.10581881    -0.00062462368
    133000   0.013519137   -0.13630922     0.0089427332  -0.10710086    -0.00099088936
    134000   0.013909172   -0.1378402      0.0090849783  -0.10790493     0.0010120003 
    135000   0.014008063   -0.14015409     0.0097946552  -0.10936089     0.0022179086 
    136000   0.014650822   -0.1441598      0.0099094998  -0.11228825     0.0019722728 
    137000   0.015157001   -0.14852652     0.010197802   -0.11560789    -0.0020711885 
    138000   0.014136669   -0.14883017     0.0096424164  -0.11799643     0.00048530809
    139000   0.014953564   -0.15231554     0.0098401213  -0.12005954     0.0024045837 
    140000   0.014455066   -0.15450878     0.010651138   -0.12218903     0.0011570427 
    141000   0.015088108   -0.15700136     0.0096965734  -0.12468723     0.00035667141
    142000   0.014667404   -0.15813942     0.010149823   -0.12600268     0.001185055  
    143000   0.014745614   -0.15876132     0.010013263   -0.12664391    -6.4041086e-05
    144000   0.01558611    -0.16276582     0.010727969   -0.12867377     0.00079792446
    145000   0.015242812   -0.16398269     0.010221941   -0.13091128     0.001778127  
    146000   0.015195214   -0.16611879     0.01037673    -0.13296394     0.0025813607 
    147000   0.01525554    -0.16965271     0.010081151   -0.13670301     0.0014506984 
    148000   0.015157497   -0.17094468     0.010960527   -0.13726258     0.0010020229 
    149000   0.015786776   -0.17133723     0.010174019   -0.13749832     0.0012205406 
    150000   0.015432119   -0.17126505     0.010755379   -0.13737643     0.0015454508 
    151000   0.015856386   -0.17290097     0.01047872    -0.13865301     0.0011229055 
    152000   0.015976079   -0.17437411     0.010551914   -0.13987354     0.001552173  
    153000   0.015400377   -0.17548334     0.010831246   -0.14156643     0.0019131008 
    154000   0.015949937   -0.17715323     0.01058207    -0.14266169     0.00084525647
    155000   0.016291368   -0.1790707      0.011052284   -0.14359713     0.00036009361
    156000   0.017353149   -0.18344682     0.011597304   -0.14583658    -0.00013768808
    157000   0.016284755   -0.18505362     0.011313255   -0.149329      -0.0007593785 
    158000   0.016561037   -0.18526478     0.011525949   -0.1489133      0.00059337684
    159000   0.016508935   -0.18524126     0.011112688   -0.14938114     0.0010951646 
    160000   0.01562799    -0.18534347     0.011027754   -0.15088886     0.0017609509 
    161000   0.015638444   -0.18552041     0.01114609    -0.15093179     0.00060297414
    162000   0.016443824   -0.18709475     0.011111484   -0.15133344    -0.00027196   
    163000   0.015497534   -0.18735208     0.011567798   -0.15255297     0.0015985672 
    164000   0.016793252   -0.19236234     0.012339755   -0.15484896     0.003808195  
    165000   0.017494684   -0.19555677     0.012063474   -0.1572682     -0.00086745041
    166000   0.016947013   -0.19738929     0.011879064   -0.16010611    -0.001451796  
    167000   0.017895482   -0.19917401     0.012007649   -0.16034046    -0.0015823486 
    168000   0.017601313   -0.20060182     0.012407005   -0.16180988     0.0031651426 
    169000   0.017229368   -0.2010133      0.012193954   -0.16299197    -0.0037630495 
    170000   0.017446648   -0.20219359     0.011389604   -0.16465089     0.00043705788
    171000   0.017467512   -0.20414256     0.012493191   -0.16546501     0.0018351605 
    172000   0.018488752   -0.20695476     0.012155025   -0.1670845      0.0014982816 
    173000   0.019283202   -0.21051629     0.012767235   -0.16884292     0.00017204926
    174000   0.018527595   -0.21319931     0.012252063   -0.17317379    -0.0024058293 
    175000   0.017950155   -0.21480298     0.012800411   -0.17509471    -0.00010226224
    176000   0.019060846   -0.21626135     0.011906731   -0.1757818      0.0029562907 
    177000   0.019610565   -0.22266225     0.013297723   -0.17996766     0.0018910324 
    178000   0.018807676   -0.22422355     0.012345088   -0.18368515     0.0038263486 
    179000   0.018695657   -0.22966667     0.013340362   -0.18830092     0.0018966474 
    180000   0.018563512   -0.23091049     0.013082621   -0.19000057     0.0010977056 
    181000   0.01844027    -0.23257157     0.013415129   -0.19151388     0.00013510594
    182000   0.017897734   -0.23267903     0.012427763   -0.19342198     0.0013910939 
    183000   0.020479297   -0.23668128     0.013011074   -0.19297108     0.0014695658 
    184000   0.019072944   -0.23648877     0.013178337   -0.19471948     0.0032343436 
    185000   0.018861377   -0.23695209     0.013635639   -0.19504264     0.0068333858 
    186000   0.019572435   -0.23850874     0.013301768   -0.19586726     0.0041538266 
    187000   0.018823912   -0.23911646     0.013509284   -0.19738953    -0.00030800937
    188000   0.018812931   -0.23937464     0.012754918   -0.19841853    -0.00016649057
    189000   0.01879182    -0.24020102     0.013123896   -0.19890757     0.0042565599 
    190000   0.019433247   -0.24238729     0.014356614   -0.19889961     0.003983511  
    191000   0.01970569    -0.2437152      0.013774142   -0.2004016     -0.0031725706 
    192000   0.019523623   -0.24710691     0.013623785   -0.20421659     0.00086639292
    193000   0.020482599   -0.25005648     0.013565878   -0.20578653     0.00011328064
    194000   0.020262441   -0.25032888     0.013007034   -0.2069478      0.0047266299 
    195000   0.020125423   -0.25384642     0.014967218   -0.20871055     0.0037868654 
    196000   0.020803452   -0.25897548     0.014290573   -0.21349986    -0.00018411192
    197000   0.020609543   -0.26261096     0.014623401   -0.21709319     0.0022098812 
    198000   0.019821062   -0.26389776     0.014635598   -0.21954975    -0.00060021037
    199000   0.020734039   -0.26672724     0.014292282   -0.22135396    -0.001455114  
    200000   0.020311085   -0.26746149     0.01425182    -0.2227627      0.0023872218 
    201000   0.020230944   -0.26871598     0.014379033   -0.22401011     0.0043343784 
    202000   0.02123806    -0.27257088     0.014522542   -0.2262118      0.00059766303
    203000   0.022957252   -0.27902859     0.014827255   -0.22978767    -0.0023859967 
    204000   0.021310735   -0.27952229     0.015070058   -0.23250675     0.0026219124 
    205000   0.02173238    -0.28398048     0.015634717   -0.23576822     0.00060380835
    206000   0.021587978   -0.28731582     0.015120828   -0.23983392    -0.0035775999 
    207000   0.021452915   -0.28897637     0.014877393   -0.24194037    -0.0024039651 
    208000   0.021562729   -0.29293602     0.015865918   -0.24474688     0.009278523  
    209000   0.021293945   -0.29516156     0.015014398   -0.24822685     0.0082443047 
    210000   0.022151107   -0.29628569     0.014745955   -0.24833451     0.006444398  
    211000   0.022045796   -0.2977956      0.015351879   -0.24939636     0.0050317489 
    212000   0.022251301   -0.29919362     0.015414803   -0.25042339    -0.0032447822 
    213000   0.021623076   -0.30097412     0.014858065   -0.25370237     0.0036719703 
    214000   0.02285739    -0.30399471     0.015098336   -0.25463241     0.00080255649
    215000   0.022779569   -0.30721282     0.015581304   -0.2574842     -0.0010927872 
    216000   0.02233827    -0.30754253     0.015064715   -0.25899203    -0.00011790318
    217000   0.022994      -0.30891663     0.014959075   -0.25948881    -0.0002702477 
    218000   0.022060171   -0.30902324     0.015105404   -0.26084893    -0.0029336806 
    219000   0.022192214   -0.30985175     0.015392797   -0.26119211     0.0011903484 
    220000   0.023036521   -0.31146641     0.015944384   -0.26098954     0.0057334196 
    221000   0.022824086   -0.3115421      0.015636965   -0.26169109     0.0012626685 
    222000   0.022004738   -0.31316451     0.015601146   -0.26457755     0.00030103995
    223000   0.022886835   -0.31462291     0.015339553   -0.26497525     0.00065226524
    224000   0.022590142   -0.31649581     0.015998206   -0.26663426     0.001715507  
    225000   0.023117069   -0.31920297     0.0154547     -0.26909504     0.0086213301 
    226000   0.023711045   -0.32238756     0.015948894   -0.27089504     0.0064785713 
    227000   0.02390195    -0.32500405     0.017388937   -0.27178532    -0.0014029756 
    228000   0.023690578   -0.32560312     0.015715615   -0.27437456     0.0042801675 
    229000   0.022746708   -0.3259844      0.015998614   -0.27588774     0.0096746738 
    230000   0.023801401   -0.32890714     0.016438534   -0.27678953     0.0025830496 
    231000   0.023355386   -0.32893407     0.015648392   -0.2782752      0.00093654132
    232000   0.022539756   -0.32944322     0.016296037   -0.27935937    -0.0078864895 
    233000   0.024375457   -0.32925657     0.015797894   -0.27691908     0.0037447155 
    234000   0.023971282   -0.3306594      0.016676483   -0.27804919    -0.0020182832 
    235000   0.024261164   -0.33227565     0.016801751   -0.27910563     0.00056172337
    236000   0.024248949   -0.3343417      0.016910422   -0.28108133     0.0035613643 
    237000   0.02432581    -0.33370643     0.016323625   -0.28091763     0.0012726577 
    238000   0.023838824   -0.33578393     0.016962541   -0.28308623    -0.0024899582 
    239000   0.025621154   -0.33707563     0.017945239   -0.28072345     0.0026595183 
    240000   0.024644142   -0.33851658     0.017429072   -0.28414515     9.1506693e-06
    241000   0.023365069   -0.33832385     0.016794523   -0.28650434     0.0022337435 
    242000   0.023540986   -0.33971751     0.016711557   -0.28771725     0.00087862859
    243000   0.024267385   -0.33994826     0.016737126   -0.28683354     0.00049635603
    244000   0.024788786   -0.34142868     0.01676351    -0.28750598    -0.0013755333 
    245000   0.024380646   -0.34255635     0.016966504   -0.28904247    -5.408381e-05 
    246000   0.024928132   -0.3435654      0.017961069   -0.28823626    -0.0011635114 
    247000   0.02423443    -0.34313553     0.017273243   -0.28953409     0.0038814203 
    248000   0.025003183   -0.34367958     0.017297991   -0.28890101     0.00078649139
    249000   0.026735206   -0.34708517     0.017158177   -0.28985005     0.0010440966 
    250000   0.026276204   -0.35083699     0.018324362   -0.29312375    -0.0014026031 
    251000   0.026805802   -0.35294409     0.017635986   -0.29512534    -0.00090026736
    252000   0.026890179   -0.3554277      0.018232917   -0.29688554     0.0023015986 
    253000   0.027380237   -0.35678275     0.017638538   -0.29810035     0.0066075733 
    254000   0.02695736    -0.35758348     0.017533241   -0.29964028     0.0099922112 
    255000   0.025755691   -0.35760059     0.017668958   -0.30132302     0.00048453317
    256000   0.025551646   -0.35729004     0.017313401   -0.3016739      0.0039410703 
    257000   0.025983408   -0.35761887     0.017240656   -0.30142825     0.0013206876 
    258000   0.025502871   -0.35749387     0.017382193   -0.30188205     0.0074246374 
    259000   0.026597901   -0.35781477     0.017926059   -0.3000176     -0.002719418  
    260000   0.025969501   -0.3584348      0.017940646   -0.30156504     0.0013274585 
    261000   0.027028931   -0.36176532     0.018456466   -0.30279162    -0.00093681428
    262000   0.027070907   -0.36342106     0.018532325   -0.30430857     0.0038965874 
    263000   0.026508639   -0.36345862     0.017997568   -0.30572375     0.00054031846
    264000   0.026263501   -0.36482868     0.017671866   -0.30778698    -0.00035817288
    265000   0.026368633   -0.36627852     0.018075287   -0.3086758     -0.0014304753 
    266000   0.027001467   -0.36810872     0.018695594   -0.30893706     0.00035008181
    267000   0.02630764    -0.36973038     0.019025558   -0.31126882     0.0003638623 
    268000   0.02677522    -0.36976879     0.018663518   -0.31096836     0.011397723  
    269000   0.025930471   -0.37037601     0.018003424   -0.31350197     0.0064719711 
    270000   0.027370574   -0.37126999     0.018959767   -0.31128084     0.0097386928 
    271000   0.02798951    -0.37239191     0.017780063   -0.31265466     0.0044123298 
    272000   0.026962089   -0.37467963     0.019980103   -0.31428249     0.0020510096 
    273000   0.028434037   -0.37643677     0.019102284   -0.31471095     0.001373784  
    274000   0.027530251   -0.37736901     0.019700649   -0.31639963     0.00015428652
    275000   0.027682769   -0.38055156     0.019306396   -0.3197478     -0.0010941429 
    276000   0.028634978   -0.38052544     0.019747971   -0.31785271    -0.00028495895
    277000   0.028271926   -0.38049654     0.018875023   -0.31924099     0.011199345  
    278000   0.02790677    -0.38201314     0.018969995   -0.32121       -0.00012310599
    279000   0.027492601   -0.38196375     0.019366614   -0.32138484     0.00012676303
    280000   0.028513087   -0.38222954     0.019527729   -0.31995978     0.0045681759 
    281000   0.027478473   -0.38249367     0.019651137   -0.32165142    -0.0013652786 
    282000   0.028429733   -0.38270162     0.020050525   -0.320034       0.00045507722
    283000   0.028152834   -0.38466288     0.019671444   -0.32278943    -0.0020302742 
    284000   0.029471748   -0.38608869     0.019268962   -0.32264062    -0.0032058737 
    285000   0.028930103   -0.38637814     0.019885681   -0.3231253      0.0025127696 
    286000   0.028623252   -0.38782748     0.020752947   -0.32416736     0.0057546928 
    287000   0.029316129   -0.38857301     0.020210911   -0.32441628    -0.0041080764 
    288000   0.028570926   -0.38859188     0.021010269   -0.32475287     0.0041867066 
    289000   0.029966697   -0.39081719     0.020656665   -0.32523948    -0.0014732502 
    290000   0.030336597   -0.39258515     0.019508345   -0.32760127     0.0056084116 
    291000   0.030216542   -0.39382509     0.020263037   -0.32826648     0.0041440728 
    292000   0.028838076   -0.39423026     0.020487294   -0.33051376     0.0008522687 
    293000   0.030628623   -0.40159229     0.021024238   -0.33465476    -0.00033741405
    294000   0.030132482   -0.40171031     0.019957504   -0.33658324     0.0029723277 
    295000   0.029354719   -0.40233555     0.021332479   -0.3369994      0.0034374955 
    296000   0.031852812   -0.40692875     0.021928994   -0.33725136     0.0086341172 
    297000   0.029548626   -0.40662863     0.021519692   -0.34081459     0.003986393  
    298000   0.02913009    -0.40620903     0.020925984   -0.3416161      0.0091925666 
    299000   0.030099971   -0.4090953      0.02045721    -0.34351726     0.0092621509 
    300000   0.029892562   -0.40943358     0.020995034   -0.34362864     0.0092513433 
    301000   0.030209008   -0.41234326     0.021903129   -0.34515586     0.012947379  
    302000   0.030482281   -0.4142618      0.021547087   -0.34702079     0.0092549022 
    303000   0.031637226   -0.41817091     0.022605534   -0.34814016     0.0085147876 
    304000   0.031998896   -0.41990382     0.021534463   -0.35040198     0.0042461314 
    305000   0.030626482   -0.4206863      0.022610195   -0.35216602     0.014190898  
    306000   0.030083022   -0.42127699     0.021392486   -0.35478909     0.0056733538 
    307000   0.031840848   -0.42284035     0.021293963   -0.35381593     0.0056304773 
    308000   0.033103662   -0.42562038     0.021420519   -0.35457641     0.018478746  
    309000   0.031161802   -0.42707578     0.021862071   -0.35850116     0.0037012826 
    310000   0.03274621    -0.42735462     0.021188064   -0.35707893     0.0075422701 
    311000   0.031036025   -0.42692851     0.02183586    -0.35856865     0.00079059959
    312000   0.032153344   -0.42859831     0.021647615   -0.35875179     0.013371688  
    313000   0.031732948   -0.4291408      0.021478259   -0.36009382     0.010281208  
    314000   0.032243567   -0.43052222     0.023068064   -0.35912001     0.010980788  
    315000   0.032479857   -0.432319       0.023007989   -0.36062266     0.016162375  
    316000   0.03239997    -0.43560288     0.021923154   -0.36511113     0.012166949  
    317000   0.032144365   -0.436073       0.02190084    -0.36598672     0.01026852   
    318000   0.032972729   -0.43756675     0.023027647   -0.36511192     0.011338433  
    319000   0.033291046   -0.43930423     0.023394182   -0.3660057      0.0066731929 
    320000   0.031837927   -0.43939171     0.023259917   -0.36840571     0.0069549099 
    321000   0.032070868   -0.43949092     0.022915216   -0.36850043     0.0057768606 
    322000   0.032473397   -0.44098094     0.023299621   -0.36900265    -0.0022790537 
    323000   0.03271003    -0.44166505     0.021669461   -0.3709622      0.0026992189 
    324000   0.033106144   -0.44185329     0.022042442   -0.37018367     0.0043006289 
    325000   0.032477242   -0.44201479     0.021566755   -0.3717636      0.00053430544
    326000   0.032505402   -0.44140169     0.021546985   -0.37112806     0.013459731  
    327000   0.034243284   -0.44020342     0.024516728   -0.36435491     0.0079670156 
    328000   0.035451178   -0.44147167     0.022604885   -0.36572433     0.0066811622 
    329000   0.034526959   -0.44172558     0.023102966   -0.36686559     0.0040983088 
    330000   0.034029927   -0.44388284     0.022927249   -0.36994363     0.00025057707
    331000   0.032795181   -0.44477997     0.022934825   -0.37268411     0.0058635825 
    332000   0.032124314   -0.44466072     0.022953541   -0.37355179     0.0059781688 
    333000   0.034327803   -0.44539858     0.022548124   -0.37139197     0.0024505405 
    334000   0.032499288   -0.44916578     0.024203739   -0.37624456     0.0008481382 
    335000   0.034785084   -0.4508813      0.023066784   -0.37567056     0.0075984226 
    336000   0.033803382   -0.45076725     0.023708085   -0.37638681     0.0072178291 
    337000   0.034121006   -0.4523548      0.024826452   -0.37637986    -0.0019045131 
    338000   0.034804601   -0.45417746     0.023923438   -0.37808081     0.0055224277 
    339000   0.033961553   -0.45516399     0.024146014   -0.38010851     0.0088466354 
    340000   0.03499173    -0.45842987     0.022424468   -0.38355167     0.0040678994 
    341000   0.033973424   -0.46238658     0.02293684    -0.38852248     0.00097637508
    342000   0.033209743   -0.46210231     0.022906571   -0.38941326    -0.0038340289 
    343000   0.035003492   -0.46208706     0.024967094   -0.3846486      0.0050563706 
    344000   0.035597163   -0.46198234     0.023080941   -0.3855401      0.0096947279 
    345000   0.03510402    -0.46205251     0.023851882   -0.38557857    -0.00031803829
    346000   0.035021857   -0.46537351     0.024428419   -0.38844619     0.0021676204 
    347000   0.035256213   -0.46823113     0.024341127   -0.39103981     0.0033239475 
    348000   0.035497985   -0.46993965     0.024919986   -0.39180704    -0.0030365732 
    349000   0.035503413   -0.47009088     0.024201765   -0.39266836     0.010453641  
    350000   0.035910604   -0.47141019     0.024951306   -0.39262773    -0.00014997476
    351000   0.036381858   -0.47184626     0.02471001    -0.39259867     0.0088385805 
    352000   0.034599429   -0.47144209     0.025550369   -0.39402606     0.0091582138 
    353000   0.035501686   -0.4730084      0.025673503   -0.39411672     0.021465382  
    354000   0.03628921    -0.47316422     0.025369679   -0.39339585     0.010642126  
    355000   0.036760938   -0.47280146     0.024658186   -0.39303744     0.0021466273 
    356000   0.037845741   -0.47489739     0.025545947   -0.39261945    -0.0038182203 
    357000   0.037476888   -0.47792952     0.026253472   -0.39549699    -0.0024594798 
    358000   0.035061352   -0.48017079     0.026846184   -0.40076651     0.0030906838 
    359000   0.036976534   -0.48064249     0.024734882   -0.40047859     0.00026998308
    360000   0.036043455   -0.48056407     0.025669799   -0.40086397     0.010270789  
    361000   0.036918363   -0.48161323     0.024567443   -0.40170397     0.0076917847 
    362000   0.037858348   -0.48186023     0.024964827   -0.40014452     0.0068076775 
    363000   0.035449589   -0.48206943     0.024873848   -0.4040555      0.014919657  
    364000   0.038138047   -0.48409558     0.025543676   -0.40138174    -0.00010318794
    365000   0.036461336   -0.48314439     0.027514927   -0.40097275     0.0028972539 
    366000   0.037377783   -0.48395411     0.024585389   -0.40333822     0.0094404935 
    367000   0.037403181   -0.48569839     0.02589601    -0.4037338      0.00034967218
    368000   0.036695312   -0.48356754     0.025627477   -0.40293261     0.01312231   
    369000   0.03712841    -0.48533066     0.025827471   -0.40384651     0.0097844302 
    370000   0.037813119   -0.48713619     0.027210536   -0.40324257    -0.00127632   
    371000   0.037971933   -0.48803997     0.026028815   -0.40509        0.0025994226 
    372000   0.038703445   -0.489437       0.026642662   -0.40477663     0.0090981299 
    373000   0.03817038    -0.4884076      0.026704646   -0.40448433    -0.0036492897 
    374000   0.040241041   -0.48768178     0.027603864   -0.39975529     0.0062204421 
    375000   0.038183358   -0.48932528     0.025309944   -0.40677725     0.010699099  
    376000   0.03822209    -0.48962278     0.026774778   -0.40555186     0.008029363  
    377000   0.036942558   -0.49071107     0.026585422   -0.40874756     0.0064664931 
    378000   0.038316722   -0.492477       0.026679828   -0.40835917     0.0075399442 
    379000   0.039229999   -0.49495852     0.026877349   -0.40927414     0.00031729125
    380000   0.039311199   -0.49757637     0.027027865   -0.41161975     0.007681604  
    381000   0.039353955   -0.4983151      0.02740916    -0.41191309    -0.0012324552 
    382000   0.039243109   -0.49969195     0.026216797   -0.41464846     0.017090425  
    383000   0.040159853   -0.50110747     0.028308812   -0.41259774     0.0024535957 
    384000   0.039667647   -0.50154409     0.026739813   -0.4153412      0.0050148978 
    385000   0.039031753   -0.5058709      0.028076161   -0.41928488    -0.006886194  
    386000   0.039307465   -0.50733116     0.028950744   -0.41945726     0.0036787311 
    387000   0.041218836   -0.50916055     0.027932981   -0.4194392      0.002990413  
    388000   0.039965094   -0.50947142     0.028201379   -0.42136108    -0.0032757477 
    389000   0.039530612   -0.51094427     0.028168499   -0.4235181      0.0067999149 
    390000   0.041529533   -0.51265063     0.028039593   -0.42235693     0.0042523471 
    391000   0.040791314   -0.51452235     0.028283781   -0.42509107     0.0049843001 
    392000   0.041023288   -0.51619649     0.027965614   -0.42673564     0.0034972928 
    393000   0.041813342   -0.52007344     0.0300813     -0.42731259     0.0079709576 
    394000   0.040820899   -0.52212296     0.027369932   -0.43356118     0.0023632687 
    395000   0.040370218   -0.52414513     0.027067471   -0.4365614      0.003859613  
    396000   0.039413783   -0.52496391     0.026875799   -0.43900558     0.0093661022 
    397000   0.040579958   -0.52408797     0.025828273   -0.43742903     0.0012348241 
    398000   0.040163976   -0.52647908     0.02716186    -0.43911012     0.0048633733 
    399000   0.040103967   -0.5266475      0.02717753    -0.43935283     0.0063538802 
    400000   0.039492118   -0.52753822     0.027546707   -0.44079155     0.007653709  
    401000   0.038793577   -0.52787349     0.027805758   -0.44191491     0.0064631851 
    402000   0.041094822   -0.52937498     0.028733663   -0.43903885     0.00638718   
    403000   0.040353285   -0.53096925     0.029244688   -0.44123368     0.0053028765 
    404000   0.041198092   -0.53110041     0.02727091    -0.44207224    -0.00056553396
    405000   0.043171366   -0.53261479     0.027866587   -0.44003294     0.0021796125 
    406000   0.040187135   -0.53344404     0.029054      -0.44414823    -0.0030913095 
    407000   0.041557751   -0.53408078     0.027630564   -0.44415381     0.0079849528 
    408000   0.040656887   -0.53603562     0.029488035   -0.4456016      0.00605874   
    409000   0.041091835   -0.53690752     0.028012257   -0.44729728     0.0056875306 
    410000   0.040792837   -0.53804342     0.028376797   -0.44851684     0.0091124456 
    411000   0.042179824   -0.5382433      0.028799644   -0.44621474     0.0032592846 
    412000   0.040617766   -0.53783963     0.02950633    -0.44744596     0.0016536465 
    413000   0.042283549   -0.5394447      0.029037507   -0.44702279     0.002532002  
    414000   0.043881927   -0.54078868     0.029195082   -0.44581317     0.017103929  
    415000   0.042582148   -0.54099241     0.028825058   -0.44833533    -0.019108613  
    416000   0.043023755   -0.54241931     0.028595178   -0.44933014     0.00054059871
    417000   0.041454784   -0.54222607     0.030907663   -0.44917635    -0.0026414703 
    418000   0.042539488   -0.54391297     0.029050184   -0.45109472    -0.0018521162 
    419000   0.043230899   -0.54663394     0.029314065   -0.45251536     0.0044396165 
    420000   0.042843478   -0.54886072     0.030974013   -0.45366295     0.0033208709 
    421000   0.04253321    -0.548898       0.028228969   -0.45691038     0.0091529558 
    422000   0.043094156   -0.5505668      0.029457568   -0.4565097      0.0019880136 
    423000   0.043425411   -0.55010371     0.030050186   -0.45495743     0.011304646  
    424000   0.043228254   -0.55054468     0.029785972   -0.45595816     0.0015751659 
    425000   0.04414533    -0.55090416     0.029956182   -0.45477271    -0.00020355974
    426000   0.044062444   -0.55048888     0.029543238   -0.45489462    -0.0063646229 
    427000   0.043899462   -0.5517989      0.030604761   -0.45538743    -0.0086342457 
    428000   0.042665363   -0.55439615     0.031437748   -0.45900164     0.0065334834 
    429000   0.043193944   -0.55555974     0.030925811   -0.45988481    -0.0069714039 
    430000   0.043562904   -0.55555276     0.02827973    -0.46197084     0.0019456056 
    431000   0.043312853   -0.55515578     0.030568227   -0.45966019    -0.0048863418 
    432000   0.042894189   -0.55472398     0.030405258   -0.46001895     0.010773444  
    433000   0.043835559   -0.55505685     0.030375199   -0.45897074     0.0061294269 
    434000   0.043712165   -0.55795912     0.029466188   -0.46296699    -0.000399204  
    435000   0.045305803   -0.5604044      0.032965996   -0.45952354     0.0027209393 
    436000   0.043968511   -0.56219767     0.030605243   -0.46568221    -0.016790882  
    437000   0.044872025   -0.56229177     0.029701578   -0.46532558     0.0021728324 
    438000   0.042861109   -0.56340442     0.031872476   -0.46728176     0.002010141  
    439000   0.0436883     -0.56247388     0.029572227   -0.46741148     0.0030788152 
    440000   0.044685418   -0.56281843     0.03144372    -0.46438983     0.0068548108 
    441000   0.046848506   -0.56356102     0.030636653   -0.46269695     0.0028833887 
    442000   0.046592445   -0.56388953     0.03269636    -0.4613496     -0.00011887918
    443000   0.047037346   -0.56449565     0.031943183   -0.46204197    -0.0045487627 
    444000   0.046042816   -0.56454011     0.030024844   -0.4654956      3.9928702e-05
    445000   0.046767317   -0.564245       0.032774373   -0.46136491     0.0029086631 
    446000   0.045061776   -0.5660483      0.032030615   -0.46646863    -0.0088843766 
    447000   0.044656274   -0.56564027     0.031201398   -0.46749768     0.005691434  
    448000   0.047949027   -0.56705945     0.030861284   -0.46432102     0.0028841651 
    449000   0.045578843   -0.56854739     0.03164572    -0.46857751     0.0074007779 
    450000   0.045611724   -0.56867056     0.033000378   -0.46729674     0.0012002851 
    451000   0.044780895   -0.56889877     0.029677734   -0.47209303     0.0092353435 
    452000   0.04697284    -0.57045475     0.03026098    -0.46977997     0.011340215  
    453000   0.046837786   -0.57144201     0.032215051   -0.4690156     -0.00046527547
    454000   0.047163871   -0.57368392     0.033018011   -0.46996575    -0.0012583671 
    455000   0.045122216   -0.57371769     0.031523666   -0.47455437     0.0076045644 
    456000   0.045255129   -0.57488776     0.031922079   -0.47512678     0.018196107  
    457000   0.047538234   -0.57605262     0.033279727   -0.47151155     0.0066629467 
    458000   0.045804864   -0.57712645     0.032942777   -0.4755207      0.015633878  
    459000   0.045758479   -0.57772683     0.030953474   -0.47817992     0.014546427  
    460000   0.047240278   -0.57688312     0.032444081   -0.47362434     0.022654273  
    461000   0.04663364    -0.57733256     0.034099962   -0.47332727     0.012143249  
    462000   0.046984852   -0.57714209     0.030972911   -0.47573737    -0.00069587961
    463000   0.045581513   -0.5766147      0.033669743   -0.4746168      0.014374202  
    464000   0.047285613   -0.57749052     0.032988478   -0.47361938     0.007623733  
    465000   0.047663409   -0.57725793     0.03180728    -0.47400167    -0.00078281244
    466000   0.047617091   -0.57839241     0.033356474   -0.47365638     0.0034796988 
    467000   0.04706385    -0.57819451     0.031828331   -0.47581595     0.011981543  
    468000   0.047754403   -0.57967028     0.034250782   -0.4738341      0.0022883991 
    469000   0.046648388   -0.58044499     0.033496107   -0.47702144     0.012348515  
    470000   0.046460765   -0.58169255     0.033260887   -0.47878548     0.004039636  
    471000   0.048712339   -0.5839631      0.033411496   -0.47753024     0.0054246314 
    472000   0.047774039   -0.58478291     0.032747687   -0.4804204     -0.00099113078
    473000   0.048375674   -0.58727745     0.032280349   -0.4824804     -0.0036595095 
    474000   0.047177591   -0.58705975     0.03362907    -0.48270995     0.0054375433 
    475000   0.047393394   -0.58665828     0.034658819   -0.48095523     0.011270928  
    476000   0.047182258   -0.58724814     0.030409972   -0.48611044     0.0094282436 
    477000   0.046515414   -0.58773461     0.0329168     -0.48508971     0.0021772368 
    478000   0.046280366   -0.58798743     0.033517913   -0.48509375     0.0010502823 
    479000   0.049062626   -0.59007126     0.03254013    -0.48398467    -0.0033354075 
    480000   0.04716524    -0.5892571      0.034854954   -0.48369993    -0.0035622428 
    481000   0.048212611   -0.59059761     0.032474718   -0.48585063     0.0039853455 
    482000   0.048586965   -0.59267823     0.033908245   -0.48593656    -0.0056918134 
    483000   0.047999191   -0.59119165     0.033955276   -0.48528404    -0.0014130922 
    484000   0.050224727   -0.5950399      0.035664582   -0.48408684    -0.0014612762 
    485000   0.050798104   -0.59623633     0.036363721   -0.48372462    -0.0033439727 
    486000   0.048653607   -0.59746163     0.035854294   -0.48867401     0.0086949788 
    487000   0.049206609   -0.59819701     0.03319006    -0.49124466     0.0013104229 
    488000   0.049459711   -0.5986122      0.033425647   -0.49104485     0.0034166217 
    489000   0.049958109   -0.59893074     0.033307048   -0.49073487     0.0057243935 
    490000   0.051043775   -0.60035692     0.033776706   -0.49006395     0.0053385515 
    491000   0.048931871   -0.59982158     0.034857623   -0.4916135      0.0024774783 
    492000   0.04945398    -0.60235162     0.034650341   -0.49356816    -4.0254338e-06
    493000   0.048848765   -0.60173621     0.035700035   -0.4928103      0.0074884862 
    494000   0.050477307   -0.60174946     0.034201036   -0.49188132     0.0093515185 
    495000   0.052763848   -0.60299927     0.035870838   -0.48803372     0.0079524033 
    496000   0.05154516    -0.60343703     0.034499232   -0.49166994    -0.0016341008 
    497000   0.049459185   -0.60535921     0.03483508    -0.49638321     0.0062116749 
    498000   0.05055523    -0.60968419     0.036443919   -0.49745636     0.01225703   
    499000   0.052817152   -0.61128909     0.033299166   -0.49881531     0.0022904837 
    500000   0.050383314   -0.61097726     0.034330651   -0.5011204     -0.0051369613 
Loop time of 118.632 on 8 procs for 500000 steps with 1550 atoms

Performance: 364150.645 tau/day, 4214.707 timesteps/s, 6.533 Matom-step/s
91.6% CPU use with 8 MPI tasks x 1 OpenMP threads

MPI task timing breakdown:
Section |  min time  |  avg time  |  max time  |%varavg| %total
---------------------------------------------------------------
Pair    | 12.781     | 14.451     | 16.215     |  29.4 | 12.18
Bond    | 4.7196     | 5.1866     | 5.6322     |  13.4 |  4.37
Neigh   | 0.046492   | 0.046579   | 0.046654   |   0.0 |  0.04
Comm    | 9.5373     | 11.76      | 13.763     |  41.4 |  9.91
Output  | 0.37662    | 0.39866    | 0.42162    |   2.3 |  0.34
Modify  | 85.371     | 85.482     | 85.576     |   0.8 | 72.06
Other   |            | 1.308      |            |       |  1.10

Nlocal:         193.75 ave         223 max         148 min
Histogram: 1 0 0 1 1 0 2 0 1 2
Nghost:         545.25 ave         582 max         457 min
Histogram: 1 0 0 0 1 1 0 0 2 3
Neighs:              0 ave           0 max           0 min
Histogram: 8 0 0 0 0 0 0 0 0 0
FullNghs:      3241.25 ave        4392 max        1783 min
Histogram: 1 0 0 2 0 1 1 1 1 1

Total # of neighbors = 25930
Ave neighs/atom = 16.729032
Ave special neighs/atom = 2.1612903
Neighbor list builds = 183
Dangerous builds = 0

unfix ThermoLng

# Now we let the system to create the polymeric network
fix ThermoLng all langevin ${temp} ${temp} ${damp} ${seed3} tally yes zero yes # Brownian Dynamics: langevin + nve
fix ThermoLng all langevin 0.05 ${temp} ${damp} ${seed3} tally yes zero yes 
fix ThermoLng all langevin 0.05 0.05 ${damp} ${seed3} tally yes zero yes 
fix ThermoLng all langevin 0.05 0.05 1 ${seed3} tally yes zero yes 
fix ThermoLng all langevin 0.05 0.05 1 2010 tally yes zero yes 
run ${steps}
run 3500000
WARNING: Using a manybody potential with bonds/angles/dihedrals and special_bond exclusions (src/pair.cpp:250)
Hybrid pair style last /omp style table/omp
Last active /omp style is angle_style harmonic/omp
Per MPI rank memory allocation (min/avg/max) = 24.03 | 24.04 | 24.04 Mbytes
   Step          Temp          E_pair         E_mol          TotEng         Press     
    500000   0.050383314   -0.61097726     0.034330651   -0.5011204     -0.00130385   
    501000   0.049910751   -0.61134944     0.034112132   -0.50241949     0.0070134929 
    502000   0.051409558   -0.61155075     0.034153909   -0.50033226    -0.0044610422 
    503000   0.049793983   -0.61215852     0.034548832   -0.5029669      0.01550035   
    504000   0.048970809   -0.61296593     0.035319353   -0.50423776     0.0063234877 
    505000   0.049932161   -0.61360747     0.035827545   -0.50293001     0.014988238  
    506000   0.050582691   -0.61459885     0.034585835   -0.50418793     0.0082217635 
    507000   0.050342706   -0.61497089     0.03672944    -0.50277611    -0.006012149  
    508000   0.05212214    -0.61545783     0.035108468   -0.50221659    -0.0011101448 
    509000   0.049826011   -0.61828564     0.036953216   -0.50664163     0.0059265361 
    510000   0.050435389   -0.61796657     0.034357787   -0.50800451     0.0042286158 
    511000   0.050094044   -0.61672242     0.035988993   -0.50564084     0.008997983  
    512000   0.049307207   -0.61723818     0.035868997   -0.50745609     0.0070705407 
    513000   0.052125634   -0.61621718     0.035964859   -0.50211431    -0.0017229782 
    514000   0.050707361   -0.61756824     0.036600384   -0.50495589     0.0092350572 
    515000   0.051099733   -0.61825778     0.035345869   -0.50631176     0.0023349749 
    516000   0.049014055   -0.61877272     0.036825135   -0.50847393     0.014655022  
    517000   0.052751985   -0.62354633     0.036166666   -0.50830273    -0.0024040588 
    518000   0.052442695   -0.62418617     0.038561024   -0.50701185    -0.013463032  
    519000   0.051170397   -0.62407176     0.036970203   -0.51039548    -0.00014022386
    520000   0.050349014   -0.62627597     0.035114338   -0.51568683     0.012690603  
    521000   0.049730195   -0.62631457     0.035643815   -0.51612359     0.00045002409
    522000   0.051923223   -0.62737353     0.036647388   -0.51289156    -0.0071176517 
    523000   0.051107052   -0.62659882     0.036946526   -0.51304117     0.0097501669 
    524000   0.051858306   -0.62700819     0.038624953   -0.51064596     0.0043166009 
    525000   0.05166148    -0.6272203      0.036909184   -0.51286889     0.017973865  
    526000   0.051725941   -0.62872518     0.03659996    -0.51458636     0.014402471  
    527000   0.050799314   -0.62895258     0.036504297   -0.51629847     0.0082659255 
    528000   0.051428715   -0.63096065     0.037000858   -0.51686649    -0.015539406  
    529000   0.050683038   -0.63039391     0.035741182   -0.51867722    -0.0017699697 
    530000   0.050538541   -0.63041455     0.03683845    -0.5178172     -0.00066879245
    531000   0.049889806   -0.63081467     0.036371899   -0.51965634    -0.0034485832 
    532000   0.052133397   -0.63017376     0.036520129   -0.51550398     0.019242542  
    533000   0.050966538   -0.63260174     0.03592015    -0.5202811      0.027957761  
    534000   0.050658187   -0.63241581     0.033809681   -0.52266787     0.014457903  
    535000   0.050248827   -0.63133271     0.03509499    -0.52091311     0.010882476  
    536000   0.05104065    -0.63384921     0.037609794   -0.51972784     0.0069946381 
    537000   0.050597002   -0.63261542     0.036332323   -0.52043656     0.01652121   
    538000   0.049898602   -0.63367769     0.035788659   -0.52308941     0.021808478  
    539000   0.050365308   -0.63488888     0.035766406   -0.52362325    -0.0015756168 
    540000   0.050641666   -0.63466018     0.037359039   -0.52138766     0.022851278  
    541000   0.051281722   -0.63585953     0.03586684    -0.52311973     0.021817179  
    542000   0.051392629   -0.63797653     0.038777346   -0.52215998     0.015072328  
    543000   0.053187372   -0.63832492     0.036231315   -0.52236402     0.023918963  
    544000   0.051733204   -0.63972464     0.035216478   -0.52695842     0.021921014  
    545000   0.05269551    -0.63961225     0.036384491   -0.52423549     0.00802697   
    546000   0.054388792   -0.64049382     0.035884176   -0.52307909     0.0076190319 
    547000   0.05358837    -0.63948537     0.035797098   -0.52335757     0.020223089  
    548000   0.050428059   -0.64114978     0.037891711   -0.52766478     0.011978427  
    549000   0.050675904   -0.64013528     0.036170849   -0.52799961     0.015475353  
    550000   0.050728645   -0.63990341     0.035346743   -0.52851279     0.0095638698 
    551000   0.050704281   -0.6417927      0.035711097   -0.53007425     5.2191487e-05
    552000   0.050905183   -0.64353068     0.035381919   -0.53184025     0.0031745993 
    553000   0.050357025   -0.64437399     0.036009125   -0.53287806    -0.0018439587 
    554000   0.05029398    -0.64285897     0.037073251   -0.53039342     0.008863288  
    555000   0.050607434   -0.64326185     0.035541706   -0.53185796     0.0043740002 
    556000   0.051956471   -0.64330282     0.038826658   -0.52659174    -0.0036081873 
    557000   0.051131038   -0.64329581     0.03459273    -0.53205601     0.0052764995 
    558000   0.050331504   -0.64423316     0.03443679    -0.53434782     0.017837366  
    559000   0.04842557    -0.64269551     0.037023065   -0.53308095     0.0064070196 
    560000   0.05034426    -0.64393713     0.03790872    -0.53056074     0.0086908034 
    561000   0.050525289   -0.64534421     0.037983062   -0.53162211    -0.0025228095 
    562000   0.051932798   -0.6471515      0.035454128   -0.53384843     0.010635776  
    563000   0.05135092    -0.64652079     0.037007124   -0.53253698     0.012515723  
    564000   0.050872145   -0.64630931     0.035234349   -0.53481597     0.0080633857 
    565000   0.047447963   -0.64734121     0.034732788   -0.54148239     0.0063390374 
    566000   0.050264813   -0.6488276      0.034638988   -0.53884003     0.010431133  
    567000   0.051286299   -0.65085558     0.038540501   -0.53543527     0.011110486  
    568000   0.052028452   -0.65069865     0.038268586   -0.53443773     0.0066773035 
    569000   0.05069738    -0.65166422     0.035314643   -0.54035257     0.020674542  
    570000   0.050940627   -0.6539727      0.037444086   -0.54016697     0.0056396626 
    571000   0.048873394   -0.65395349     0.035828657   -0.54486204     0.011933442  
    572000   0.049774992   -0.65349052     0.034866624   -0.54400957     0.0090510572 
    573000   0.051269862   -0.65431678     0.034887107   -0.5425745      0.025636051  
    574000   0.051594926   -0.6559073      0.038423402   -0.54014144     0.0069146312 
    575000   0.050912802   -0.65591373     0.036119312   -0.54347448     0.00092762969
    576000   0.050375533   -0.65645163     0.035787733   -0.54514934     0.024877127  
    577000   0.05176141    -0.65629813     0.0365166     -0.54218951     0.0054061355 
    578000   0.051770047   -0.65701795     0.036494663   -0.54291832    -0.0037043241 
    579000   0.051630321   -0.65833865     0.033830063   -0.54711307    -0.0084267009 
    580000   0.049607252   -0.65985968     0.036203083   -0.54929373     0.0093112912 
    581000   0.051231226   -0.66011355     0.037192693   -0.54612359     0.011071332  
    582000   0.050714494   -0.66106184     0.037149941   -0.54788923     0.0069365908 
    583000   0.04981388    -0.66071405     0.036992412   -0.54904903     0.0097134996 
    584000   0.050733834   -0.65950177     0.035269012   -0.5481811      0.00055213129
    585000   0.049855781   -0.65909836     0.033195285   -0.55116765     0.013345072  
    586000   0.051238004   -0.66174683     0.038798748   -0.54614066     0.0064362934 
    587000   0.053540427   -0.66455586     0.038652937   -0.54564409     0.015469446  
    588000   0.053523166   -0.66406796     0.039278579   -0.54455643    -0.0069989512 
    589000   0.053120103   -0.66521542     0.038579639   -0.54700703    -0.00027041769
    590000   0.052448844   -0.66587756     0.037334236   -0.54992082    -0.0069736689 
    591000   0.054132885   -0.66746129     0.037125238   -0.54918911     0.012581395  
    592000   0.051475957   -0.66888612     0.036240331   -0.55548167    -0.0054504423 
    593000   0.050688082   -0.66811859     0.03570362    -0.5564319      0.011522198  
    594000   0.051087103   -0.66950127     0.036670146   -0.55624991     0.0075707864 
    595000   0.050067594   -0.66874286     0.034305534   -0.55938439     0.020649712  
    596000   0.049648909   -0.66905176     0.036968263   -0.55765818     0.0076359743 
    597000   0.051355582   -0.6712762      0.036181984   -0.55811054     0.00033049555
    598000   0.051329158   -0.67056071     0.035961771   -0.55765487     0.014359808  
    599000   0.049927777   -0.67122874     0.034231785   -0.56215361    -0.004007659  
    600000   0.051358757   -0.67294613     0.035957235   -0.56000046     0.0056138063 
    601000   0.051919035   -0.67258801     0.035097936   -0.55966176     0.010908516  
    602000   0.051713006   -0.67283404     0.036776397   -0.55853818     0.018375936  
    603000   0.051299702   -0.67244993     0.03518943    -0.56036059     0.013211914  
    604000   0.050886788   -0.6737537      0.035045888   -0.56242688     0.028396911  
    605000   0.052045566   -0.67427798     0.036802265   -0.55945773     0.012579834  
    606000   0.051995816   -0.67475949     0.036846383   -0.5599697      0.019778973  
    607000   0.050286174   -0.67606984     0.037143396   -0.56354584     0.013920842  
    608000   0.049822322   -0.67391792     0.03705955    -0.5621731      0.01399923   
    609000   0.052468117   -0.67475317     0.037930004   -0.55817176     0.0090655829 
    610000   0.0514218     -0.674627       0.037294574   -0.56024949     0.014225837  
    611000   0.051053846   -0.67572222     0.035187064   -0.56400379     0.0074714057 
    612000   0.050611109   -0.67575797     0.035242403   -0.56464789     0.020072694  
    613000   0.049864139   -0.67664125     0.03546308    -0.56643022     0.0087205077 
    614000   0.050865083   -0.67829786     0.034300068   -0.56774939     0.00093967334
    615000   0.050075222   -0.67856892     0.037369327   -0.56613522     0.018636639  
    616000   0.051340281   -0.67895132     0.0356426     -0.56634799     0.00043928421
    617000   0.051971674   -0.68057089     0.035815807   -0.56684787     0.0079796015 
    618000   0.050604861   -0.6790242      0.035837783   -0.5673281      0.020892764  
    619000   0.050914937   -0.68093248     0.037302831   -0.56730651    -0.011539568  
    620000   0.051987288   -0.68140683     0.036220617   -0.56725559     0.0020700908 
    621000   0.051487286   -0.68023633     0.034987553   -0.56806767     0.019119624  
    622000   0.05032407    -0.68114367     0.036076483   -0.56962978    -0.0085598216 
    623000   0.050273937   -0.68351172     0.037495487   -0.57065398     0.0060553996 
    624000   0.050817191   -0.68282473     0.033876736   -0.57277138    -0.0028001449 
    625000   0.047751992   -0.68172321     0.037210685   -0.57293075    -0.00062238485
    626000   0.050110915   -0.68262107     0.035511786   -0.57199141     0.013805893  
    627000   0.049981186   -0.68291644     0.035139451   -0.57285358     0.0057022858 
    628000   0.050963588   -0.68359041     0.035282743   -0.57191161    -0.0027172601 
    629000   0.050312799   -0.68430463     0.036322749   -0.57256137    -0.0097406116 
    630000   0.05027312    -0.68539927     0.037098952   -0.57293929     0.0095541521 
    631000   0.050640428   -0.68501978     0.037712047   -0.5713961     -0.0015557006 
    632000   0.050988607   -0.68545797     0.033843833   -0.57518057    -0.0082641369 
    633000   0.051544525   -0.68553727     0.03732081    -0.57094955     0.007707248  
    634000   0.050354235   -0.6882018      0.0383127     -0.57440648    -0.0071722857 
    635000   0.050446747   -0.68629926     0.0375383     -0.57313966    -0.0017676079 
    636000   0.050989164   -0.68747884     0.037647595   -0.57339684     0.015476959  
    637000   0.051397953   -0.68679791     0.036930696   -0.57282002     0.017804185  
    638000   0.050806944   -0.68823418     0.036297924   -0.57577501     0.0030633135 
    639000   0.051382757   -0.68898865     0.035725089   -0.57623915     0.023921519  
    640000   0.05161041    -0.69020001     0.036285934   -0.5765484      0.0066219671 
    641000   0.05086624    -0.69283326     0.037383785   -0.57919934     0.004094052  
    642000   0.051094951   -0.69032009     0.036815184   -0.57691192     0.02291244   
    643000   0.050388728   -0.69063133     0.035738893   -0.57935811     0.0042538423 
    644000   0.049124947   -0.68923753     0.036731024   -0.57886663     0.0085717413 
    645000   0.050597615   -0.68943726     0.035557485   -0.57803232     0.0021999659 
    646000   0.050975389   -0.69068628     0.036017821   -0.57825471    -3.5007279e-05
    647000   0.048616569   -0.69102076     0.035850185   -0.58229277     0.0064024189 
    648000   0.051010369   -0.68959395     0.03613896    -0.5769888      0.0043162664 
    649000   0.049464764   -0.68959419     0.03615562    -0.57928929     0.0040870768 
    650000   0.050773217   -0.69150465     0.036585334   -0.57880863     0.0057836155 
    651000   0.048940437   -0.69207369     0.034643654   -0.58406674    -0.0053855827 
    652000   0.051417806   -0.69200713     0.035760741   -0.57916944     0.0023215108 
    653000   0.051340495   -0.69149446     0.03531602    -0.57921738     0.01239054   
    654000   0.052859506   -0.69259182     0.036834175   -0.57651954    -0.0083706522 
    655000   0.050875898   -0.69294061     0.036120275   -0.58055572     0.0086043624 
    656000   0.050163944   -0.69173338     0.035288673   -0.58124734    -0.012223855  
    657000   0.04985038    -0.69013207     0.035789599   -0.57961515     0.0069085751 
    658000   0.050184448   -0.69346208     0.037164131   -0.58106984     0.013132136  
    659000   0.051038368   -0.69316125     0.039208893   -0.5774442      0.00054425327
    660000   0.051249954   -0.69397828     0.036379614   -0.58077333     0.0012567068 
    661000   0.050283456   -0.69531967     0.036092494   -0.58385065    -0.001133733  
    662000   0.050805058   -0.69473108     0.035275991   -0.58329666     0.0058514155 
    663000   0.050752738   -0.69597792     0.035528972   -0.58436895     0.00058149859
    664000   0.050262192   -0.69604672     0.035992333   -0.58470974     0.016202393  
    665000   0.0501539     -0.69612607     0.037005654   -0.58393811    -0.013394786  
    666000   0.051329283   -0.69483529     0.034751701   -0.58313934    -0.0065144397 
    667000   0.051306649   -0.69628305     0.035345114   -0.58402761     0.0031573508 
    668000   0.050519766   -0.69942088     0.039171676   -0.58451845    -0.0068827305 
    669000   0.051040584   -0.69930249     0.035718121   -0.58707288    -0.012743433  
    670000   0.051240194   -0.69924681     0.038613634   -0.58382247     0.0073637989 
    671000   0.051006821   -0.69904385     0.036959639   -0.58562334     0.018247295  
    672000   0.04995067    -0.69634746     0.03634867    -0.58512113     0.024504002  
    673000   0.053044333   -0.69895738     0.035375784   -0.58406643     0.0084659108 
    674000   0.052453147   -0.69851312     0.036592923   -0.58329123     0.016262037  
    675000   0.051098767   -0.69875349     0.037320441   -0.58483435     0.010987328  
    676000   0.049915403   -0.69932314     0.036249396   -0.58824895     0.0019452436 
    677000   0.050767411   -0.7002597      0.035624978   -0.58853274    -0.0038370881 
    678000   0.050703589   -0.69871647     0.037363899   -0.58534626    -0.010356451  
    679000   0.052106849   -0.69807359     0.038173215   -0.58179053     0.00089650685
    680000   0.050820938   -0.69850561     0.036504959   -0.58581842     0.010912658  
    681000   0.051365945   -0.69769748     0.036468276   -0.58423        0.012070229  
    682000   0.05041694    -0.69986581     0.035814021   -0.58847517    -0.0077774    
    683000   0.05144826    -0.70072175     0.037486655   -0.5861125     -0.00091484336
    684000   0.052523893   -0.7022723      0.037341269   -0.58619602    -0.0019873255 
    685000   0.05086788    -0.70289586     0.03800589    -0.58863738     0.0095411202 
    686000   0.0497748     -0.70287673     0.035422958   -0.59283975     0.013369294  
    687000   0.050951195   -0.70490185     0.035827024   -0.59269734    -0.0072232492 
    688000   0.050942792   -0.70470811     0.037472704   -0.59087052     0.0092672887 
    689000   0.053009774   -0.70412784     0.036265605   -0.58839888     0.0074032037 
    690000   0.052985234   -0.70477665     0.038194968   -0.58715511    -0.011916796  
    691000   0.051423413   -0.70425204     0.037348427   -0.58981825     0.01141853   
    692000   0.052225243   -0.70397897     0.035685526   -0.59000612     0.010006499  
    693000   0.05263915    -0.70333231     0.035312627   -0.5891119      0.0098048456 
    694000   0.049338242   -0.70324599     0.038104986   -0.59118139    -0.0055341208 
    695000   0.050769984   -0.70331977     0.034269557   -0.59294437     0.0078085657 
    696000   0.049634793   -0.70397817     0.036939101   -0.59263492     0.0085411602 
    697000   0.050555542   -0.70429181     0.036916919   -0.5915905      0.011438465  
    698000   0.04999953    -0.70594557     0.036003295   -0.59499137     0.019868299  
    699000   0.054057666   -0.70574887     0.037878177   -0.58683651     0.010463133  
    700000   0.050764042   -0.70511957     0.036442911   -0.59257972    -0.00891387   
    701000   0.050221792   -0.70771877     0.036317156   -0.59611753    -0.0091008019 
    702000   0.052875672   -0.70845288     0.039315124   -0.58987542     0.0047152889 
    703000   0.052981482   -0.70743425     0.039515195   -0.5884981      0.0091899797 
    704000   0.052588652   -0.70725478     0.036985583   -0.59143711     0.002346431  
    705000   0.052709751   -0.70785533     0.035607865   -0.59323385     0.0025132069 
    706000   0.05028898    -0.70922658     0.038184087   -0.59565769    -0.0085060066 
    707000   0.049779338   -0.70886471     0.03604448    -0.5981994      0.017436129  
    708000   0.049802869   -0.70827627     0.035243403   -0.59837676     0.018000708  
    709000   0.051315728   -0.70858884     0.036657203   -0.59500771     0.0049566273 
    710000   0.050539287   -0.70923259     0.037861404   -0.59561116     0.010747018  
    711000   0.05105804    -0.70940728     0.03804073    -0.5948289      0.0024784736 
    712000   0.052152227   -0.70854548     0.036255707   -0.5941119      0.0066761199 
    713000   0.051883294   -0.7099947      0.037610189   -0.59460978     0.0093096786 
    714000   0.052255063   -0.71121164     0.03735509    -0.59552452     0.00034445264
    715000   0.050718574   -0.71299443     0.036412789   -0.60055286     0.0047904467 
    716000   0.049576586   -0.71574078     0.037902493   -0.60352138    -0.0055163391 
    717000   0.052029065   -0.71442919     0.037425792   -0.59901015     0.0064921352 
    718000   0.051851421   -0.71626569     0.03819708    -0.60034166     0.0050468309 
    719000   0.050629646   -0.71469444     0.036096136   -0.60270283     0.0070324645 
    720000   0.051341677   -0.71555697     0.03642478    -0.60216936     0.0083808946 
    721000   0.052935168   -0.71823678     0.036001115   -0.60288414     0.017468596  
    722000   0.05190086    -0.71912811     0.037722527   -0.60360451     0.0069424187 
    723000   0.049781708   -0.71747123     0.036974298   -0.60587255     0.016775025  
    724000   0.049541511   -0.71691897     0.037221196   -0.60543345     0.012963457  
    725000   0.052521905   -0.7170819      0.036159082   -0.60219078     0.0053962594 
    726000   0.049664279   -0.71769525     0.037363285   -0.60588361     0.0097750243 
    727000   0.051485592   -0.71945313     0.0384157     -0.60385886    -0.010187394  
    728000   0.052991973   -0.72146646     0.037231965   -0.60479782     0.00076476214
    729000   0.053333565   -0.72238365     0.03636512    -0.6060698     -0.001965383  
    730000   0.052532471   -0.7238495      0.039186281   -0.60591535     0.0010235499 
    731000   0.05112628    -0.72287325     0.035681671   -0.61055163     0.023639326  
    732000   0.050685423   -0.72398333     0.036249309   -0.61175493     0.011587746  
    733000   0.052294429   -0.72434274     0.036159626   -0.60979208     0.022829563  
    734000   0.052057289   -0.72372886     0.037872943   -0.60782036     0.011153285  
    735000   0.052713239   -0.72476362     0.037711523   -0.60803325     0.0086511184 
    736000   0.052864534   -0.72419596     0.037793704   -0.60715661     0.016160373  
    737000   0.053281092   -0.72221765     0.035679989   -0.60666759     0.014077059  
    738000   0.053227613   -0.72309362     0.039158399   -0.60414531     0.014854459  
    739000   0.051185851   -0.72507956     0.037494175   -0.61085614     0.012143877  
    740000   0.051712117   -0.72385852     0.036520666   -0.60981972     0.019107209  
    741000   0.052854423   -0.72526562     0.03884275    -0.60719239     0.03105917   
    742000   0.052457872   -0.72783771     0.040283767   -0.6089179      0.017333428  
[...]
   2003000   0.052084363   -0.81155286     0.043100898   -0.69037582     0.040383371  
   2004000   0.05200065    -0.81407447     0.043318353   -0.69280547     0.032219472  
   2005000   0.051484516   -0.81222971     0.042357404   -0.69269535     0.0070714314 
   2006000   0.052651791   -0.81327158     0.042274764   -0.69207009    -0.0036544749 
   2007000   0.054094685   -0.81208424     0.042860469   -0.6881341     -0.0023291013 
   2008000   0.052837052   -0.81373335     0.045870978   -0.68865792    -0.0093492331 
   2009000   0.05110594    -0.81374059     0.044262414   -0.69286872    -0.014091645  
   2010000   0.053579876   -0.81144312     0.044374186   -0.68675097     0.041592301  
   2011000   0.053344872   -0.81367253     0.043590302   -0.69011655     0.0055745599 
   2012000   0.04999872    -0.81305876     0.044193663   -0.6939154      0.031623501  
   2013000   0.052745914   -0.81293399     0.042907593   -0.69095857     0.0091721014 
   2014000   0.051422443   -0.81287102     0.042014633   -0.69377249     0.0040512479 
   2015000   0.054155491   -0.81317774     0.043298179   -0.68869873     0.0485239    
   2016000   0.049852989   -0.81373542     0.045257771   -0.69374641    -0.010305948  
   2017000   0.052042811   -0.81405127     0.046530344   -0.68950708    -0.014188307  
   2018000   0.051443078   -0.81415444     0.044643013   -0.69239659     0.024469551  
   2019000   0.0516358     -0.81548975     0.043656774   -0.69442925     0.019944607  
   2020000   0.051440203   -0.81479346     0.043775272   -0.69390767     0.0053441895 
   2021000   0.052276731   -0.81400152     0.043787457   -0.69184955     0.052608379  
   2022000   0.054130956   -0.81311554     0.043972209   -0.68799928     0.020094994  
   2023000   0.054499676   -0.81349744     0.042812674   -0.68898799     0.021561318  
   2024000   0.052715581   -0.81564842     0.042417746   -0.69420831     0.046110745  
   2025000   0.052930461   -0.81410541     0.042434199   -0.69232675     0.036707281  
   2026000   0.053611904   -0.81462941     0.043530854   -0.69073258     0.026770301  
   2027000   0.053573212   -0.8163038      0.043281951   -0.69271388     0.041104498  
   2028000   0.053100003   -0.81482427     0.043848788   -0.69137686     0.022845973  
   2029000   0.053073147   -0.81597834     0.043393564   -0.69302642     0.022974951  
   2030000   0.051528627   -0.81562097     0.045334889   -0.69304301     0.0045935627 
   2031000   0.053030908   -0.81674368     0.042812346   -0.69443629     0.039441782  
   2032000   0.052778858   -0.81580537     0.041121783   -0.69556638     0.02637052   
   2033000   0.051485679   -0.81547176     0.043779885   -0.69451318     0.02026617   
   2034000   0.05249555    -0.81632612     0.042464388   -0.69516921     0.036545752  
   2035000   0.052406519   -0.81637133     0.045068577   -0.69274369     0.013914969  
   2036000   0.051781948   -0.81552363     0.041899076   -0.69600174     0.050908159  
   2037000   0.052166717   -0.81517134     0.043080514   -0.69389123     0.040894582  
   2038000   0.053754982   -0.81637786     0.042310189   -0.69348721     0.028253343  
   2039000   0.053135304   -0.81400647     0.041430895   -0.69292404     0.011967371  
   2040000   0.053298318   -0.81524321     0.04531437    -0.69003294     0.0026090094 
   2041000   0.054078088   -0.81464227     0.041956257   -0.69162121     0.0301114    
   2042000   0.052018637   -0.81674414     0.043884712   -0.69488182     0.0074405738 
   2043000   0.053657843   -0.81482745     0.043408788   -0.69098383     0.033572119  
   2044000   0.053194653   -0.81638939     0.044083657   -0.69256524     0.028756679  
   2045000   0.055879206   -0.81645827     0.044107924   -0.68858561    -0.010341748  
   2046000   0.052551586   -0.81353901     0.045527909   -0.68923458     0.0089821471 
   2047000   0.052987689   -0.81458871     0.045962391   -0.68919606     0.042545554  
   2048000   0.05439182    -0.81349175     0.045516312   -0.68644035     0.0064901504 
   2049000   0.05312525    -0.81446621     0.043616073   -0.69121368     0.029638922  
   2050000   0.050687175   -0.81281012     0.042383165   -0.69444524     0.02600794   
   2051000   0.053943316   -0.81553839     0.042481373   -0.69219425     0.0045367908 
   2052000   0.053939754   -0.81582592     0.042064783   -0.6929037      0.018102743  
   2053000   0.051536345   -0.8137032      0.04212112    -0.69432744    -0.0046259355 
   2054000   0.055174264   -0.81539791     0.042072464   -0.69061744     0.0087309578 
   2055000   0.053548901   -0.81287244     0.042149574   -0.69045134     0.032340927  
   2056000   0.054794022   -0.81593314     0.043065321   -0.69072981    -0.0028847455 
   2057000   0.052702972   -0.81383965     0.043451182   -0.69138502     0.03013788   
   2058000   0.053001495   -0.81395337     0.043511615   -0.6909908      0.031105297  
   2059000   0.05365593    -0.81435859     0.043808953   -0.69011767     0.0051968988 
   2060000   0.054035601   -0.813293       0.045217283   -0.68707461     0.034174086  
   2061000   0.053217757   -0.81310108     0.043470357   -0.68985559     0.058633112  
   2062000   0.053550059   -0.81335066     0.042719372   -0.69035802     0.02418686   
   2063000   0.053230377   -0.81251821     0.042722507   -0.69000165     0.030830488  
   2064000   0.052225087   -0.81380231     0.042721165   -0.69279406    -0.001007744  
   2065000   0.053999869   -0.81131879     0.041457043   -0.68891421     0.029211773  
   2066000   0.051112458   -0.81324144     0.043364371   -0.69325785    -0.010058051  
   2067000   0.052903185   -0.81242825     0.044483117   -0.68864156     0.020273258  
   2068000   0.052410183   -0.8129422      0.043442422   -0.69093522     0.039271846  
   2069000   0.051109926   -0.81244915     0.045540494   -0.69029322     8.8406603e-05
   2070000   0.051984068   -0.81466731     0.042883031   -0.69385849     0.018294946  
   2071000   0.052278318   -0.81542898     0.042927636   -0.69413446     0.0059873969 
   2072000   0.05255872    -0.81306055     0.043651714   -0.69062162     0.00055163388
   2073000   0.053781078   -0.81387904     0.043964786   -0.68929469     0.013629725  
   2074000   0.053550844   -0.81402977     0.04355938    -0.69019595     0.020621742  
   2075000   0.053699304   -0.81367099     0.043663526   -0.68951047     0.01666646   
   2076000   0.053711441   -0.8131576      0.043254279   -0.68938814     0.010361321  
   2077000   0.054854017   -0.81297621     0.044540888   -0.68620739     0.022547591  
   2078000   0.0524338     -0.81448292     0.04426752    -0.69161545     0.013108168  
   2079000   0.052481123   -0.81354327     0.041671584   -0.69320078     0.026075023  
   2080000   0.052233058   -0.81415374     0.045237383   -0.69061732     0.033957303  
   2081000   0.054527805   -0.81513097     0.043514536   -0.6898775      0.031272341  
   2082000   0.050752687   -0.81402708     0.044732364   -0.6932148      0.014797051  
   2083000   0.051430584   -0.81349827     0.041975349   -0.69442682     0.034966166  
   2084000   0.052109829   -0.81387312     0.042702043   -0.69305676    -0.0022681603 
   2085000   0.05005611    -0.81256927     0.040321887   -0.69721166     0.027575123  
   2086000   0.051356969   -0.81396158     0.042318688   -0.69465714     0.019725353  
   2087000   0.052717053   -0.81317466     0.040776407   -0.69337368     0.018829667  
   2088000   0.052213642   -0.81494255     0.045047307   -0.69162531     0.023213652  
   2089000   0.0534817     -0.81584926     0.047213813   -0.68846465     0.017172854  
   2090000   0.052588741   -0.81312112     0.043579575   -0.69070933     0.0015592795 
   2091000   0.053130665   -0.81395382     0.04370877    -0.69060047     0.033969303  
   2092000   0.051651176   -0.81397936     0.044188008   -0.69236457     0.024037061  
   2093000   0.054248468   -0.81254578     0.042439387   -0.68878619     0.026702045  
   2094000   0.050196247   -0.81226753     0.042347655   -0.69467408     0.022372449  
   2095000   0.053007939   -0.81403847     0.044994824   -0.68958303     0.046161744  
   2096000   0.053500763   -0.81354116     0.044751959   -0.68858983     0.020850015  
   2097000   0.051352596   -0.81404776     0.043269222   -0.69379934     0.044496916  
   2098000   0.052281861   -0.81420412     0.042137736   -0.69369418     0.036815529  
   2099000   0.053971894   -0.81367713     0.044309118   -0.6884624      0.034737596  
   2100000   0.052195281   -0.81367846     0.04425976    -0.69117629     0.0091939829 
   2101000   0.051292496   -0.81471909     0.044878443   -0.69295154     0.017293549  
   2102000   0.050885992   -0.81341084     0.045424587   -0.69170651    -0.011816405  
   2103000   0.051683378   -0.81281499     0.044412919   -0.69092702     0.030301345  
   2104000   0.052217253   -0.81299402     0.042910419   -0.69180825     0.027918024  
   2105000   0.054116577   -0.81276447     0.04350219    -0.68813979     0.040281706  
   2106000   0.052875872   -0.81386592     0.044988569   -0.68961471     0.013238541  
   2107000   0.052350372   -0.81423734     0.043498658   -0.69226378    -0.0036568623 
   2108000   0.053226453   -0.81275886     0.04188014    -0.69109056     0.035623072  
   2109000   0.052404121   -0.81334631     0.042014559   -0.69277628     0.058982834  
   2110000   0.053251184   -0.81358009     0.04370316    -0.69005169     0.014454485  
   2111000   0.052316911   -0.81326735     0.043304732   -0.69153788     0.022978472  
   2112000   0.052833221   -0.81344305     0.043967525   -0.69027682     0.0036017657 
   2113000   0.052862237   -0.81119646     0.043972036   -0.68798222     0.048528256  
   2114000   0.05253245    -0.81329061     0.042735133   -0.69180764    -0.021384195  
   2115000   0.052404715   -0.81456321     0.043531613   -0.69247524    -0.016142909  
   2116000   0.052897867   -0.81322554     0.043287904   -0.69064203     0.021980803  
   2117000   0.052321961   -0.81343987     0.045750684   -0.68925688     0.037809131  
   2118000   0.052201483   -0.81447236     0.043003124   -0.69321753     0.016117176  
   2119000   0.051795496   -0.81115211     0.043549375   -0.68995961     0.00012387093
   2120000   0.051007935   -0.81460693     0.045082617   -0.69306177     0.0084223306 
   2121000   0.053574603   -0.81214251     0.041614441   -0.69021801     0.0069799244 
   2122000   0.054233822   -0.81315672     0.0435038     -0.68835467     0.0060357348 
   2123000   0.05270905    -0.81426858     0.045755922   -0.68950009    -0.0050584292 
   2124000   0.055542704   -0.81395684     0.043863634   -0.6868329      0.010715473  
   2125000   0.053638542   -0.81422893     0.043607733   -0.69021529    -0.0019944681 
   2126000   0.051273422   -0.81237713     0.04456325    -0.69095337     0.010011689  
   2127000   0.051557876   -0.81186788     0.045561459   -0.6890195      0.0095463271 
   2128000   0.051478988   -0.81367421     0.041519862   -0.69498568     0.012853503  
   2129000   0.053982836   -0.81328075     0.044707037   -0.6876517      0.028956203  
   2130000   0.050917011   -0.81278459     0.044452705   -0.69200564     0.0084097068 
   2131000   0.052405099   -0.81382333     0.04222259    -0.6930438      0.017034218  
   2132000   0.053701033   -0.81221877     0.043883688   -0.68783551    -0.017339514  
   2133000   0.05375372    -0.81311807     0.042339451   -0.69020006     0.011468787  
   2134000   0.052591721   -0.81348179     0.042896839   -0.69174826     0.0036895354 
   2135000   0.05225322    -0.81323012     0.042168224   -0.69273264     0.044485539  
   2136000   0.05211166    -0.81416131     0.042819528   -0.69322472     0.01763511   
   2137000   0.052502554   -0.81356759     0.043996761   -0.69086781     0.0096475601 
   2138000   0.054439773   -0.81471311     0.04255072    -0.69055541    -0.0054478914 
   2139000   0.053208293   -0.81572924     0.044779024   -0.69118926     0.0099151024 
   2140000   0.054105842   -0.81172928     0.042282249   -0.68834063     0.002000008  
   2141000   0.052605571   -0.81392147     0.044309173   -0.69075484     0.014509366  
   2142000   0.053247706   -0.81323702     0.043694252   -0.68972274     0.0073162578 
   2143000   0.051990849   -0.81335046     0.043015844   -0.69239866     0.012813771  
   2144000   0.052210706   -0.81171826     0.04377573    -0.689677       0.026562219  
   2145000   0.051493429   -0.8135172      0.043447385   -0.6928795      0.016738881  
   2146000   0.054213222   -0.81572113     0.04317987    -0.69127389     0.028109405  
   2147000   0.050721566   -0.81391844     0.042451698   -0.69543348    -0.010733824  
   2148000   0.051419071   -0.81381242     0.044066147   -0.69266742    -0.0073143378 
   2149000   0.053880385   -0.81281262     0.041651664   -0.69039252     0.010426829  
   2150000   0.054285389   -0.81323701     0.041614541   -0.69024692     0.02392752   
   2151000   0.053326813   -0.81388824     0.044089379   -0.68986025    -0.00373539   
   2152000   0.051389608   -0.81289072     0.04356457    -0.69229147    -0.011370033  
   2153000   0.052255426   -0.81383876     0.042237825   -0.69326836     0.0060380819 
   2154000   0.052713505   -0.81225808     0.042833211   -0.69040562     0.021002179  
   2155000   0.051878426   -0.81377691     0.042470175   -0.69353931     0.011941009  
   2156000   0.054299529   -0.81302995     0.042750772   -0.68888243     0.030071636  
   2157000   0.051486844   -0.81354327     0.042954774   -0.69340805     0.033829357  
   2158000   0.052283849   -0.81289321     0.043529342   -0.69098869     0.030044393  
   2159000   0.054055085   -0.81383162     0.044747457   -0.68805384     0.025549353  
   2160000   0.052665151   -0.81279173     0.046117876   -0.6877271      0.0092502533 
   2161000   0.051586387   -0.8127039      0.042441225   -0.69293302     0.0095460194 
   2162000   0.052375101   -0.81405736     0.042132916   -0.69341247     0.008107561  
   2163000   0.052364003   -0.81446019     0.042558052   -0.69340681     0.0026165475 
   2164000   0.05253615    -0.81453312     0.04382367    -0.69195606     0.00088504683
   2165000   0.052612635   -0.81314356     0.043723082   -0.69055244    -0.00095673456
   2166000   0.052287295   -0.81275114     0.043271892   -0.6910989      0.010715236  
   2167000   0.052910745   -0.81183343     0.038577927   -0.69394059     0.034178417  
   2168000   0.052314881   -0.81285914     0.044277258   -0.69016019     0.011008022  
   2169000   0.052012229   -0.81479923     0.043700256   -0.69313096     0.0046105949 
   2170000   0.052987883   -0.81409532     0.042829716   -0.69183506     0.01591298   
   2171000   0.053119049   -0.81443926     0.043323265   -0.69148883     0.018098851  
   2172000   0.052146525   -0.81448481     0.042131097   -0.69418439     0.0063800596 
   2173000   0.051577499   -0.8156227      0.043880957   -0.69442541     0.030788643  
   2174000   0.052692109   -0.81412185     0.042723629   -0.69241105     0.0070635058 
   2175000   0.051446033   -0.81520774     0.042249714   -0.69583876     0.028073638  
   2176000   0.051053441   -0.81587935     0.043063014   -0.69628558     0.011375466  
   2177000   0.053652861   -0.81504465     0.044942781   -0.6896745      0.0052067151 
   2178000   0.053281723   -0.8148136      0.045043163   -0.68989941     0.016393966  
   2179000   0.054107133   -0.81336408     0.042267483   -0.68998826     0.01820571   
   2180000   0.053235133   -0.81463269     0.043097341   -0.69173417     0.023948322  
   2181000   0.054285083   -0.81425757     0.043672642   -0.68920984     0.010184709  
   2182000   0.054393036   -0.81571609     0.042446632   -0.69173255    -0.00012229538
   2183000   0.052838997   -0.81564016     0.043979561   -0.69245324     0.011714836  
   2184000   0.052839779   -0.8161967      0.043443014   -0.69354516    -0.0067085483 
   2185000   0.05257934    -0.81435733     0.042965889   -0.69257332     0.011182851  
   2186000   0.052953057   -0.8154216      0.042472395   -0.69357087    -0.022978652  
   2187000   0.053712788   -0.81536771     0.043983472   -0.69086703     0.001541765  
   2188000   0.052890418   -0.816714       0.042930313   -0.69449925    -0.016950575  
   2189000   0.053555867   -0.81617018     0.043607199   -0.692281       0.003805303  
   2190000   0.052993777   -0.81618594     0.043007659   -0.6937389     -0.00024210278
   2191000   0.051375343   -0.81628015     0.044015629   -0.69525123    -0.0092461875 
   2192000   0.051717897   -0.81607906     0.042967063   -0.6955852      0.016912881  
   2193000   0.052538486   -0.81568829     0.04306192    -0.69386949    -0.00079592159
   2194000   0.052404075   -0.81606615     0.042921537   -0.69458921    -0.017734728  
   2195000   0.053140834   -0.8156412      0.043073918   -0.69290746     0.021248631  
   2196000   0.051331358   -0.81709837     0.042163706   -0.6979873     -0.0021328312 
   2197000   0.053455474   -0.81558911     0.043161193   -0.69229643    -0.022232385  
   2198000   0.05383054    -0.81499845     0.042227506   -0.69207723     0.031400812  
   2199000   0.052832988   -0.81590725     0.04113961    -0.69556929     0.00189121   
   2200000   0.051957457   -0.81712959     0.044096713   -0.69514698    -0.012066711  
   2201000   0.054956787   -0.81780889     0.044202872   -0.69122402     0.02224881   
   2202000   0.053651999   -0.8153569      0.046270925   -0.6886599     -0.0079132775 
   2203000   0.054421951   -0.81693635     0.043215227   -0.69214087    -0.0047472984 
   2204000   0.05110683    -0.8170894      0.044717743   -0.69576087     0.0010387106 
   2205000   0.052592803   -0.81835854     0.045024355   -0.69449588     0.041914423  
   2206000   0.051745348   -0.81830026     0.043513008   -0.69721931     0.010592285  
   2207000   0.05113102    -0.81892613     0.043593199   -0.69868588     0.010471823  
   2208000   0.051716908   -0.81641368     0.04143506    -0.69745331     0.020046273  
   2209000   0.051968865   -0.81694352     0.043293028   -0.69574749     0.011439948  
   2210000   0.052644518   -0.81937413     0.045004107   -0.69545419     0.039985614  
   2211000   0.053367684   -0.81607323     0.044075186   -0.69199817     0.041462869  
   2212000   0.052821551   -0.81412751     0.042813092   -0.69213321     0.021751277  
   2213000   0.051853883   -0.81472633     0.042781186   -0.6942145      0.022950002  
   2214000   0.050713835   -0.81421458     0.044056039   -0.69413687     0.013109691  
   2215000   0.055166429   -0.81601878     0.044857754   -0.68846477    -0.00030319824
   2216000   0.053565689   -0.81499014     0.044282576   -0.69041087     0.0065232559 
   2217000   0.054417015   -0.81518076     0.043256806   -0.69035109     0.0046287409 
   2218000   0.052285827   -0.81557016     0.045372535   -0.69181948     0.013945813  
   2219000   0.053508646   -0.81626103     0.044272749   -0.6917771      0.0057835928 
   2220000   0.05071602    -0.81557918     0.043737285   -0.69581694    -0.0082345232 
   2221000   0.051245862   -0.81673274     0.042726338   -0.6971872      0.017655846  
   2222000   0.055818624   -0.81651004     0.040907754   -0.69192837     0.0042351452 
   2223000   0.05210518    -0.81363879     0.043235447   -0.692296       0.017678159  
   2224000   0.054017916   -0.8148431      0.042914746   -0.69095376     0.050194215  
   2225000   0.05250407    -0.81693584     0.043159959   -0.69507059    -0.0028038034 
   2226000   0.053020095   -0.81453714     0.042960919   -0.69209738     0.0093969608 
   2227000   0.052739915   -0.81721389     0.043742875   -0.69441219     0.014358719  
   2228000   0.052899107   -0.81730001     0.043618443   -0.69438409     0.028097728  
   2229000   0.054159861   -0.81612724     0.044392492   -0.69054737     0.0072603535 
   2230000   0.053532026   -0.81766566     0.041970025   -0.6954494      0.028718977  
   2231000   0.053009702   -0.81480691     0.04471781    -0.69062584     0.0031227578 
  