LAMMPS (22 Jul 2025)
OMP_NUM_THREADS environment is not set. Defaulting to 1 thread.
  using 1 OpenMP thread(s) per MPI task
package omp 0
using multi-threaded neighbor list subroutines
# Input Script of lammps for assembly simulation of polimeric network.
# Main code is based on: https://github.com/PipeB62/Hydrogel-Simulation
# Patchy particles are with bond style.

# Felipe Benavides modified by Fco. Vazquez

# Initialization
units lj
dimension 3
boundary p p p

# Styles of atoms and that stuff
atom_style full
bond_style harmonic
angle_style harmonic
pair_style hybrid/overlay zero 0.0 lj/cut/omp 1.12 table/omp linear 5000000 threebody/table

newton on

# Create simulaiton box
region simulation_box block -$L $L -$L $L -$L $L
region simulation_box block -16.752187 $L -$L $L -$L $L
region simulation_box block -16.752187 16.752187 -$L $L -$L $L
region simulation_box block -16.752187 16.752187 -16.752187 $L -$L $L
region simulation_box block -16.752187 16.752187 -16.752187 16.752187 -$L $L
region simulation_box block -16.752187 16.752187 -16.752187 16.752187 -16.752187 $L
region simulation_box block -16.752187 16.752187 -16.752187 16.752187 -16.752187 16.752187
# N-atom-types region-ID keyword value Is necesesary the extra/special/per/atom (# of special neighbors per atom)
create_box 4 simulation_box     bond/types 1     angle/types 2     extra/bond/per/atom 10     extra/angle/per/atom 6     extra/special/per/atom 10
Created orthogonal box = (-16.752187 -16.752187 -16.752187) to (16.752187 16.752187 16.752187)
  2 by 2 by 2 MPI processor grid

# Atom types
mass 1 1.0      # CL
mass 2 1.0      # MO
mass 3 0.1      # PA
mass 4 0.1      # PB

# Coefficients
include potential.in
# Script with the pair-wise interaction and bonds between particles

bond_coeff 1 100.0 0.45
angle_coeff 1 100.0 180
angle_coeff 2 100.0 109.4712
pair_coeff 1 3 zero 0.5
pair_coeff 1 4 zero 0.5
pair_coeff 2 3 zero 0.5
pair_coeff 2 4 zero 0.5
pair_coeff 3 3 zero 0.5
pair_coeff 1 1 lj/cut/omp 1.0 1.0 1.12
pair_coeff 2 2 lj/cut/omp 1.0 1.0 1.12
pair_coeff 1 2 lj/cut/omp 1.0 1.0 1.12
pair_coeff 3 4 table/omp sysFiles/pachTab.table POT 0.6 # sw/omp sysFiles/patchyPot.sw NULL NULL PA PB
Reading pair table potential file sysFiles/pachTab.table with DATE: 2024-07-08
WARNING: 7 of 1000000 force values in table POT are inconsistent with -dE/dr.
WARNING:  Should only be flagged at inflection points (src/pair_table.cpp:469)
pair_coeff 4 4 table/omp sysFiles/pachTab.table POT 0.6 # sw/omp sysFiles/patchyPot.sw NULL NULL PA PB
Reading pair table potential file sysFiles/pachTab.table with DATE: 2024-07-08
WARNING: 7 of 1000000 force values in table POT are inconsistent with -dE/dr.
WARNING:  Should only be flagged at inflection points (src/pair_table.cpp:469)
pair_coeff * * threebody/table swapMech.3b NULL NULL PA PB
pair_modify pair lj/cut/omp shift yes


# Molecules
include molecules.in
# Script with all molecule information and create groups for computes

# Read the molecule information
molecule CL sysFiles/molecule.patchy.CL
Read molecule template CL:
# Patchy Cross-Linker
  1 molecules
  0 fragments
  0 bodies
  5 atoms with max type 3
  4 bonds with max type 1
  6 angles with max type 2
  0 dihedrals with max type 0
  0 impropers with max type 0
molecule MO sysFiles/molecule.patchy.MO
Read molecule template MO:
# Patchy Monomer
  1 molecules
  0 fragments
  0 bodies
  3 atoms with max type 4
  2 bonds with max type 1
  1 angles with max type 1
  0 dihedrals with max type 0
  0 impropers with max type 0

# Introduce the molecules
# ID style args keyword arg
region spawn_box block -$L $L -$L $L -$L $L
region spawn_box block -16.752187 $L -$L $L -$L $L
region spawn_box block -16.752187 16.752187 -$L $L -$L $L
region spawn_box block -16.752187 16.752187 -16.752187 $L -$L $L
region spawn_box block -16.752187 16.752187 -16.752187 16.752187 -$L $L
region spawn_box block -16.752187 16.752187 -16.752187 16.752187 -16.752187 $L
region spawn_box block -16.752187 16.752187 -16.752187 16.752187 -16.752187 16.752187

# create_atoms type style args keyword values
# style_random: N seed region-ID
# keyword_mol: template-ID seed
# keyword_overlap: overlap value = only insert if at least this distance from all existing atoms
# keyword_maxtry: maxtry value = number of attempts to insert a particle before failure
create_atoms 0 random ${NCL} ${seed1} spawn_box mol CL ${seed1} overlap 1.0 maxtry 5000 #xls
create_atoms 0 random 125 ${seed1} spawn_box mol CL ${seed1} overlap 1.0 maxtry 5000 
create_atoms 0 random 125 3234 spawn_box mol CL ${seed1} overlap 1.0 maxtry 5000 
create_atoms 0 random 125 3234 spawn_box mol CL 3234 overlap 1.0 maxtry 5000 
Created 625 atoms
  using lattice units in orthogonal box = (-16.752187 -16.752187 -16.752187) to (16.752187 16.752187 16.752187)
  create_atoms CPU = 0.009 seconds
create_atoms 0 random ${NMO} ${seed2} spawn_box mol MO ${seed2} overlap 1.0 maxtry 5000 #mon
create_atoms 0 random 2375 ${seed2} spawn_box mol MO ${seed2} overlap 1.0 maxtry 5000 
create_atoms 0 random 2375 6321 spawn_box mol MO ${seed2} overlap 1.0 maxtry 5000 
create_atoms 0 random 2375 6321 spawn_box mol MO 6321 overlap 1.0 maxtry 5000 
Created 7125 atoms
  using lattice units in orthogonal box = (-16.752187 -16.752187 -16.752187) to (16.752187 16.752187 16.752187)
  create_atoms CPU = 0.125 seconds

# Create patchy particles
group CrossLinker type 1 3
625 atoms in group CrossLinker
group Monomer type 2 4
7125 atoms in group Monomer
group Patches type 3 4
5250 atoms in group Patches
group CL type 1
125 atoms in group CL
group MO type 2
2375 atoms in group MO
group PA type 3
500 atoms in group PA
group CM type 1 2
2500 atoms in group CM

# Neighbor list
neighbor 1.8 bin # extra-distance style
#neigh_modify delay 0 every 1 check no
#neigh_modify exclude molecule/intra CrossLinker
#neigh_modify exclude molecule/intra Monomer

# COMPUTES

# Compute global kinetic and potential energy and temperature
compute t all temp
compute p all pressure t
compute ep all pe
compute ek all ke
variable eT equal etotal
variable eB equal ebond
variable eA equal eangle
variable eM equal emol
variable ec equal ecouple
variable eC equal econserve

# Potencial energy per pair-wise interaction
compute wcaPair all pair lj/cut/omp epair
compute patchPair all pair table/omp epair
compute swapPair all pair threebody/table epair

# Compute the pressure
compute press all pressure t ke virial
compute pressVirial all pressure t virial
compute pressVirialMod all pressure t pair bond angle

# Computes for the stress
compute cstress all stress/atom t ke pair bond angle
compute cstressVirial all stress/atom t virial
compute cstressVirialMod all stress/atom t pair bond angle
compute stress all reduce sum c_cstress[*]
compute stressVirial all reduce sum c_cstressVirial[*]
compute stressVirialMod all reduce sum c_cstressVirialMod[*]

# Displacement of the central particles
compute disp CM displace/atom
compute redDisp CM reduce ave c_disp[*] # All, because yes

# Get the number of central particles per cluster
compute clusters all aggregate/atom 0.6                             # Create the clusters
compute Nclpart CM chunk/atom c_clusters compress yes discard yes   # Get the number of clusters
compute clsize CM property/chunk Nclpart count                      # Counts the atoms in each chunk
compute idcl CM property/chunk Nclpart id                           # Get the ids of the clusters

# DUMPS and FIXES

thermo ${NsaveStress}
thermo 1000

# Save global energies and temperature
fix Energy all ave/time 1 ${Nsave} ${Nsave} c_t c_wcaPair c_patchPair c_swapPair c_ep c_ek v_eT v_ec v_eC c_p v_eB v_eA v_eM c_redDisp[*] file ${Dir}/${file1_name}
fix Energy all ave/time 1 1000 ${Nsave} c_t c_wcaPair c_patchPair c_swapPair c_ep c_ek v_eT v_ec v_eC c_p v_eB v_eA v_eM c_redDisp[*] file ${Dir}/${file1_name}
fix Energy all ave/time 1 1000 1000 c_t c_wcaPair c_patchPair c_swapPair c_ep c_ek v_eT v_ec v_eC c_p v_eB v_eA v_eM c_redDisp[*] file ${Dir}/${file1_name}
fix Energy all ave/time 1 1000 1000 c_t c_wcaPair c_patchPair c_swapPair c_ep c_ek v_eT v_ec v_eC c_p v_eB v_eA v_eM c_redDisp[*] file /home/franvt/GitRepos/molDynLammps/polymericGels/gel-bonds-1/data/0.050.30.052500-2026-01-16-102953/${file1_name}
fix Energy all ave/time 1 1000 1000 c_t c_wcaPair c_patchPair c_swapPair c_ep c_ek v_eT v_ec v_eC c_p v_eB v_eA v_eM c_redDisp[*] file /home/franvt/GitRepos/molDynLammps/polymericGels/gel-bonds-1/data/0.050.30.052500-2026-01-16-102953/system_assembly.fixf

# Save Pressure and Stress tensor
fix fixStress5 all ave/time 1 ${NsaveStress} ${NsaveStress} c_p c_press[*] c_pressVirial[*] c_pressVirialMod[*] c_stress[*] c_stressVirial[*] c_stressVirialMod[*] file ${Dir}/${file2_name}
fix fixStress5 all ave/time 1 1000 ${NsaveStress} c_p c_press[*] c_pressVirial[*] c_pressVirialMod[*] c_stress[*] c_stressVirial[*] c_stressVirialMod[*] file ${Dir}/${file2_name}
fix fixStress5 all ave/time 1 1000 1000 c_p c_press[*] c_pressVirial[*] c_pressVirialMod[*] c_stress[*] c_stressVirial[*] c_stressVirialMod[*] file ${Dir}/${file2_name}
fix fixStress5 all ave/time 1 1000 1000 c_p c_press[*] c_pressVirial[*] c_pressVirialMod[*] c_stress[*] c_stressVirial[*] c_stressVirialMod[*] file /home/franvt/GitRepos/molDynLammps/polymericGels/gel-bonds-1/data/0.050.30.052500-2026-01-16-102953/${file2_name}
fix fixStress5 all ave/time 1 1000 1000 c_p c_press[*] c_pressVirial[*] c_pressVirialMod[*] c_stress[*] c_stressVirial[*] c_stressVirialMod[*] file /home/franvt/GitRepos/molDynLammps/polymericGels/gel-bonds-1/data/0.050.30.052500-2026-01-16-102953/stress_assembly.fixf

# Save the global cluster information
fix 1 CM ave/time 1 1 ${Ndump} c_idcl c_clsize file ${Dir}/${file3_name} mode vector
fix 1 CM ave/time 1 1 1000 c_idcl c_clsize file ${Dir}/${file3_name} mode vector
fix 1 CM ave/time 1 1 1000 c_idcl c_clsize file /home/franvt/GitRepos/molDynLammps/polymericGels/gel-bonds-1/data/0.050.30.052500-2026-01-16-102953/${file3_name} mode vector
fix 1 CM ave/time 1 1 1000 c_idcl c_clsize file /home/franvt/GitRepos/molDynLammps/polymericGels/gel-bonds-1/data/0.050.30.052500-2026-01-16-102953/clust_assembly.fixf mode vector

# Save atom positions with cluster id
dump dumpID all custom ${Ndump} ${Dir}/traj/${file5_name} id mol c_clusters type x y z vx vy vz
dump dumpID all custom 1000 ${Dir}/traj/${file5_name} id mol c_clusters type x y z vx vy vz
dump dumpID all custom 1000 /home/franvt/GitRepos/molDynLammps/polymericGels/gel-bonds-1/data/0.050.30.052500-2026-01-16-102953/traj/${file5_name} id mol c_clusters type x y z vx vy vz
dump dumpID all custom 1000 /home/franvt/GitRepos/molDynLammps/polymericGels/gel-bonds-1/data/0.050.30.052500-2026-01-16-102953/traj/traj_assembly.*.dumpf id mol c_clusters type x y z vx vy vz
dump_modify dumpID pbc yes # remap atoms via periodic boundary conditions

# RUN SIMULATION

# Brownian Dynamics using Langevin Thermostat

timestep ${tstep}
timestep 0.001

fix VelVerlet all nve # Use Velocity Verlet integrator

# First elevate the temperature
fix ThermoLng all langevin 0.0 ${temp} ${damp} ${seed3} # Brownian Dynamics: langevin + nve
fix ThermoLng all langevin 0.0 0.05 ${damp} ${seed3} 
fix ThermoLng all langevin 0.0 0.05 1 ${seed3} 
fix ThermoLng all langevin 0.0 0.05 1 2010 
run ${stepsheat}
run 500000
WARNING: Using a manybody potential with bonds/angles/dihedrals and special_bond exclusions (src/pair.cpp:250)
Hybrid pair style last /omp style table/omp
Last active /omp style is angle_style harmonic/omp
Neighbor list info ...
  update: every = 1 steps, delay = 0 steps, check = yes
  max neighbors/atom: 2000, page size: 100000
  master list distance cutoff = 2.92
  ghost atom cutoff = 2.92
  binsize = 1.46, bins = 23 23 23
  7 neighbor lists, perpetual/occasional/extra = 6 1 0
  (1) pair zero, perpetual, skip from (7)
      attributes: half, newton on, omp
      pair build: skip/omp
      stencil: none
      bin: none
  (2) pair lj/cut/omp, perpetual, skip from (7)
      attributes: half, newton on, omp
      pair build: skip/omp
      stencil: none
      bin: none
  (3) pair table/omp, perpetual, skip from (7)
      attributes: half, newton on, omp
      pair build: skip/omp
      stencil: none
      bin: none
  (4) pair threebody/table, perpetual, skip from (6)
      attributes: full, newton on, omp
      pair build: skip/omp
      stencil: none
      bin: none
  (5) compute aggregate/atom, occasional, copy from (6)
      attributes: full, newton on, omp
      pair build: copy
      stencil: none
      bin: none
  (6) neighbor class addition, perpetual
      attributes: full, newton on, omp
      pair build: full/bin/omp
      stencil: full/bin/3d
      bin: standard
  (7) neighbor class addition, perpetual, half/full from (6)
      attributes: half, newton on, omp
      pair build: halffull/newton/omp
      stencil: none
      bin: none
Per MPI rank memory allocation (min/avg/max) = 19.8 | 19.8 | 19.81 Mbytes
   Step          Temp          E_pair         E_mol          TotEng         Press     
         0   0              0.00032397144  0.15480456     0.15512854    -0.2141153    
      1000   0.017854229    0              0.030922997    0.057700886   -0.087287975  
      2000   0.01399065     0              0.00031682389  0.021300091   -0.0027837854 
      3000   0.0033166062   0              0.0031076427   0.00808191     0.027088583  
      4000   0.00036893599  0              0.0029773317   0.0035306642   0.025627354  
      5000   0.00066549004  7.3215337e-09  0.00097182206  0.0019699356   0.013018278  
      6000   0.00077240903  1.9153791e-07  0.00035774887  0.0015164045   0.0019751112 
      7000   0.00069737094  0              0.00044843847  0.0014943599  -0.0029134362 
      8000   0.00072118375  1.0321756e-07  0.00053393186  0.0016156711  -0.0034058245 
      9000   0.00085532853 -0.00011697814  0.00058528862  0.0017511377  -0.0020378544 
     10000   0.00097528344 -0.00031691637  0.00062908187  0.0017749019  -0.00028183379
     11000   0.0011876272  -0.00089003717  0.00076476517  0.0016559389   0.0003033396 
     12000   0.0012910241  -0.0014069499   0.00083529477  0.0013646311   0.00084064231
     13000   0.0013761714  -0.0021377668   0.0011841696   0.0011103935   0.00047230235
     14000   0.0015607332  -0.0025209456   0.00096625491  0.00078610697  9.1423798e-05
     15000   0.0016095321  -0.0033322963   0.0013211983   0.00040288858  0.0001048494 
     16000   0.001660258   -0.0037808453   0.0011763628  -0.00011441683 -0.00021144684
     17000   0.0019304518  -0.0047245775   0.0013302981  -0.00049897533 -0.00026300984
     18000   0.0023817939  -0.0067678458   0.0016176292  -0.0015779868  -0.00021026624
     19000   0.0023330419  -0.0078499259   0.0015865476  -0.002764267    0.00015462985
     20000   0.0022594775  -0.0091273864   0.0018606863  -0.0038779212   0.00011918626
     21000   0.002571435   -0.010743619    0.0017333252  -0.0051536386   0.00030649768
     22000   0.0028022737  -0.013043827    0.001883387   -0.0069575713   0.00017803295
     23000   0.0026024846  -0.013716406    0.0019531439  -0.0078600393   0.00049847434
     24000   0.0024800333  -0.01397417     0.0017320367  -0.0085225636   0.00067698452
     25000   0.0030119194  -0.016279518    0.0022742912  -0.0094879311   9.6194021e-05
     26000   0.003496315   -0.018752352    0.00242911    -0.011079447   -0.00041420533
     27000   0.0036368911  -0.02117395     0.0024471296  -0.013272188   -0.00020609732
     28000   0.0034150284  -0.023076683    0.0024007096  -0.015554092    6.0802699e-05
     29000   0.0036369031  -0.024855547    0.0026691073  -0.016731789    0.00028705058
     30000   0.0038285253  -0.027914319    0.0027988701  -0.019373402    0.00043423664
     31000   0.0034922029  -0.029138054    0.0027025758  -0.02119785     0.00031139073
     32000   0.0037169751  -0.03082064     0.0025655242  -0.022680372    0.00038377095
     33000   0.0039788174  -0.032791414    0.0029570651  -0.023866893   -0.00039630445
     34000   0.0041423034  -0.034611013    0.0028019526  -0.025596407    0.00016239078
     35000   0.0043524893  -0.038292155    0.0032116288  -0.028552635    0.00029091364
     36000   0.0044100512  -0.04038983     0.0031365799  -0.030639027    0.00060784444
     37000   0.0044998064  -0.043431572    0.0034249787  -0.033257755    0.00017127923
     38000   0.0047122818  -0.04667696     0.0037922459  -0.035817204    0.00057271053
     39000   0.0047082251  -0.049223455    0.0035086984  -0.03865333     0.00049996445
     40000   0.0047373744  -0.051398003    0.0034771812  -0.040815678    0.00037635356
     41000   0.0049938037  -0.053840586    0.0034388608  -0.042911987   -0.00024317323
     42000   0.0050873654  -0.056265071    0.0038169981  -0.044818009   -2.8265581e-07
     43000   0.0055369819  -0.060066292    0.0037517711  -0.04801012     0.0009919866 
     44000   0.0055288025  -0.063119499    0.0038733859  -0.05095398     0.00057834036
     45000   0.0055121935  -0.066294317    0.004144104   -0.05388299     0.00010650726
     46000   0.0056294298  -0.070056845    0.0042119891  -0.057401801    0.00047890622
     47000   0.0058125764  -0.073452711    0.0041774124  -0.060557559    6.7075419e-05
     48000   0.0054655768  -0.07546822     0.0040840875  -0.063186825   -0.00067632314
     49000   0.0056101076  -0.077334407    0.0040088575  -0.064911474    0.00058041518
     50000   0.0059876788  -0.081078987    0.0040036305  -0.068094997    0.0010228258 
     51000   0.0057766184  -0.082900807    0.0040868782  -0.07015012     0.0011660298 
     52000   0.0065357075  -0.087583474    0.0047290358  -0.073052142    0.0002386757 
     53000   0.007142746   -0.092944213    0.0051953778  -0.077036099    0.00087202083
     54000   0.0064594829  -0.095556166    0.0046159213  -0.081252271    0.00079799755
     55000   0.0063933781  -0.097544037    0.004631007   -0.083324201    0.00047909406
     56000   0.0065289054  -0.10036764     0.0048887131  -0.085686829    0.0005521667 
     57000   0.0065421835  -0.10311296     0.0045452779  -0.088755669   -4.7471266e-05
     58000   0.0063409822  -0.10420938     0.004601883   -0.090097251    0.00037673119
     59000   0.0068090173  -0.10720517     0.004868147   -0.092124815    0.0010498862 
     60000   0.006981086   -0.10990555     0.0051248488  -0.094310428    0.00056695397
     61000   0.0070064834  -0.11265561     0.0048489082  -0.097298328   -0.00011846482
     62000   0.007216012   -0.11663097     0.0053812658  -0.10042708    -4.9510694e-05
     63000   0.0075191486  -0.12042164     0.0055132012  -0.10363118     0.0012543404 
     64000   0.0076533149  -0.12431399     0.0054910262  -0.10734447     0.00012186776
     65000   0.0077352776  -0.12825723     0.0056009936  -0.11105481     0.00088321313
     66000   0.0078616271  -0.13196783     0.0057712041  -0.11440571     0.00020007342
     67000   0.008231662   -0.13668071     0.0057533556  -0.11858146     6.1486875e-05
     68000   0.0075625423  -0.13846384     0.0053750541  -0.12174644     0.00094564133
     69000   0.0073636056  -0.1401805      0.0052927562  -0.12384376     0.0018260973 
     70000   0.0082801425  -0.14601647     0.0060621416  -0.12753571    -0.00082413236
     71000   0.0082710186  -0.14831181     0.0057119769  -0.1301949     -6.1230528e-05
     72000   0.0081166042  -0.15129694     0.005777136   -0.13334646     0.00095360508
     73000   0.0085125294  -0.15564761     0.0057701427  -0.13711032     0.00076506132
     74000   0.008886773   -0.16037363     0.0065337893  -0.1405114      0.0008597973 
     75000   0.0087970356  -0.16502927     0.006607846   -0.14522757    -0.00033472045
     76000   0.0085572087  -0.16751663     0.0061630511  -0.14851942     0.00069611574
     77000   0.009085158   -0.17227322     0.0063167049  -0.15233054     0.00021833252
     78000   0.0087354554  -0.17437236     0.0060702555  -0.15520061     0.00091173136
     79000   0.0088215789  -0.17910415     0.0065005538  -0.15937293    -0.00084923687
     80000   0.0093913657  -0.1829944      0.0066101061  -0.16229906     0.00010391186
     81000   0.009594365   -0.18697071     0.0066858484  -0.16589517     0.00020386357
     82000   0.0095309131  -0.19044284     0.006547611   -0.16960071    -8.5465325e-05
     83000   0.0099453554  -0.19542404     0.0071331521  -0.17337478     0.00047921555
     84000   0.0095706938  -0.19783366     0.0065199651  -0.1769595      0.00024394814
     85000   0.0093789792  -0.20029559     0.0064490366  -0.1797799     -6.8734799e-05
     86000   0.0091647107  -0.20269858     0.0064365183  -0.18251677     0.0010150669 
     87000   0.0092559423  -0.20387641     0.0066050476  -0.18338925     0.00020271906
     88000   0.009607996   -0.20760502     0.0069836013  -0.18621128     0.00021839845
     89000   0.010423765   -0.21175958     0.0072860113  -0.18883994     0.0015062335 
     90000   0.010857107   -0.21849123     0.0080698178  -0.19413786    -0.00015069675
     91000   0.010146308   -0.22089284     0.0074006083  -0.19827473    -0.00081060523
     92000   0.010008533   -0.22263745     0.0069307376  -0.20069586    -0.00045378317
     93000   0.0099285865  -0.22463621     0.0068811568  -0.2028641     -0.00055806132
     94000   0.01009987    -0.22622386     0.0070229453  -0.20405307     0.0011510452 
     95000   0.010381589   -0.23049868     0.0074647207  -0.20746358     0.00075410877
     96000   0.010831553   -0.23404815     0.0074645899  -0.21033832    -0.00066601479
     97000   0.010851487   -0.23728697     0.0078436891  -0.21316815     0.00068610314
     98000   0.010991826   -0.24069728     0.0076988792  -0.21651279    -8.6306888e-05
     99000   0.011225227   -0.24529459     0.0078484903  -0.22061044     0.00027839491
    100000   0.011234183   -0.24829933     0.0079141982  -0.22353603     0.0012568008 
    101000   0.010954921   -0.24993127     0.0073725702  -0.22612844     0.0013585748 
    102000   0.011043495   -0.25256627     0.0079260012  -0.22807716     0.0014564646 
    103000   0.011053002   -0.25592828     0.008210762   -0.23114015    -0.00061763755
    104000   0.012104297   -0.26078208     0.0082843145  -0.23434366     0.00064742995
    105000   0.011752251   -0.26589652     0.0086078236  -0.23966259     0.00022899502
    106000   0.011896083   -0.2681565      0.0083270705  -0.24198761     0.00027891485
    107000   0.011957783   -0.27132386     0.0083906734  -0.24499883     0.00021804254
    108000   0.011918914   -0.27312951     0.0084461844  -0.24680726     0.0015963979 
    109000   0.013256278   -0.2790592      0.0092753132  -0.24990204     0.00059889232
    110000   0.012467205   -0.282755       0.0088584747  -0.25519813    -0.001290662  
    111000   0.013374771   -0.28778075     0.0091519739  -0.25856921     0.0023481102 
    112000   0.01332692    -0.29368346     0.0091548508  -0.26454081     0.00028897746
    113000   0.0137073     -0.29812915     0.0096015089  -0.26796934     0.0033741284 
    114000   0.012743836   -0.30012315     0.0089080002  -0.27210187     0.0017466934 
    115000   0.013141421   -0.30394671     0.0093059908  -0.27493113     0.0013441288 
    116000   0.013107124   -0.30809592     0.0090570148  -0.27938076    -0.00027924944
    117000   0.013257615   -0.31034223     0.0091714555  -0.28128692     0.00048450063
    118000   0.013116677   -0.31339992     0.0088723545  -0.28485509    -0.0005453886 
    119000   0.013055865   -0.31507831     0.0092687324  -0.2862283      0.00081865341
    120000   0.012926084   -0.31706464     0.0092718697  -0.28840615    -0.00012425794
    121000   0.013432672   -0.31951778     0.0092228821  -0.29014849    -0.0010885    
    122000   0.013655464   -0.32217818     0.0094768418  -0.29222079     0.00053780274
    123000   0.013705234   -0.32705225     0.0097944736  -0.29670258     0.00043526393
    124000   0.013571434   -0.33240221     0.009409433   -0.30263825    -0.0010779999 
    125000   0.013962896   -0.33217032     0.0095467576  -0.30168192     2.5300051e-05
    126000   0.014060379   -0.33606562     0.0095130228  -0.30546475     0.00052153858
    127000   0.013422869   -0.33790573     0.0094539088  -0.30832012    -0.00048702191
    128000   0.01364009    -0.33806253     0.0092458877  -0.30835914     0.00090851677
    129000   0.013911048   -0.34343497     0.0099922125  -0.31257888     0.0016796761 
    130000   0.014224901   -0.34530623     0.0098432705  -0.31412836    -0.0022245719 
    131000   0.014006372   -0.34863218     0.010367274   -0.31725806     0.0013579839 
    132000   0.014410076   -0.35186738     0.010462177   -0.31979287    -0.00064074451
    133000   0.014702873   -0.3531292      0.010353219   -0.32072451     0.0027704847 
    134000   0.014933242   -0.35838191     0.010692725   -0.32529221    -0.0017013326 
    135000   0.014946875   -0.36190249     0.010343025   -0.32914205    -0.00038807209
    136000   0.015002328   -0.36434955     0.010479865   -0.33136909     0.00053670213
    137000   0.014758161   -0.36784995     0.010295871   -0.3354197      0.0016199409 
    138000   0.015507123   -0.37121226     0.010825328   -0.33712925    -0.00010056813
    139000   0.015812019   -0.37512845     0.011148885   -0.34026459    -0.0014691689 
    140000   0.015467051   -0.37749771     0.011327822   -0.34297231     0.0022413885 
    141000   0.016049661   -0.38382672     0.010950349   -0.34880499     0.00127901   
    142000   0.01579721    -0.38858123     0.011500085   -0.35338839     0.0015058093 
    143000   0.01548766    -0.39120768     0.011346369   -0.35663282     0.00047863916
    144000   0.015840231   -0.39291471     0.011041643   -0.35811579     0.0039921603 
    145000   0.015957391   -0.39588629     0.011082005   -0.36087129     0.00012379842
    146000   0.015715708   -0.40057575     0.011036056   -0.36596918     0.0028070897 
    147000   0.015322175   -0.40451561     0.010664125   -0.37087119     0.0022108516 
    148000   0.015959825   -0.40356581     0.010939997   -0.36868917     0.003584553  
    149000   0.015766642   -0.40516235     0.010999581   -0.37051586     0.002135878  
    150000   0.016942596   -0.41036416     0.011384817   -0.37356872     0.0011785027 
    151000   0.016867752   -0.41446657     0.011649275   -0.37751893    -0.00043261223
    152000   0.016961278   -0.4163686      0.011406932   -0.37952303     0.00048969409
    153000   0.016516817   -0.42091875     0.01148159    -0.38466513     0.00075858983
    154000   0.01660852    -0.42273765     0.011419104   -0.38640898     0.001513443  
    155000   0.016994849   -0.4283279      0.012206027   -0.39063289     0.0054629473 
    156000   0.017244213   -0.42948573     0.011397722   -0.39222503     0.0022134015 
    157000   0.016572998   -0.43218557     0.011665383   -0.39566389     0.0048978268 
    158000   0.017228663   -0.43498147     0.011916215   -0.39722559     0.0036033235 
    159000   0.018168318   -0.44101648     0.012570227   -0.40119729     0.0020590357 
    160000   0.01719631    -0.44076559     0.011986889   -0.40298757     0.0050423586 
    161000   0.018311395   -0.44770299     0.012813761   -0.40742568    -0.00039920755
    162000   0.018165847   -0.45126542     0.012525285   -0.41149488     0.0035644924 
    163000   0.018201192   -0.455184       0.01281658    -0.41506915     0.00097369125
    164000   0.018125597   -0.4587086      0.013218097   -0.41830561     0.0018572085 
    165000   0.018464213   -0.46279587     0.012809421   -0.4222937     -1.7413657e-05
    166000   0.018139389   -0.46720094     0.012916206   -0.42707916    -0.0020356376 
    167000   0.018053785   -0.46863235     0.012675512   -0.42887965     0.0038537415 
    168000   0.018722748   -0.47413469     0.012994163   -0.43306002     0.0033684937 
    169000   0.017844424   -0.476791       0.012908938   -0.43711888     0.0062348457 
    170000   0.018172061   -0.47858018     0.012623188   -0.43870242    -0.0025147373 
    171000   0.018100852   -0.47736296     0.012577472   -0.43763772     0.0004701506 
    172000   0.018403189   -0.48070151     0.012505224   -0.44059507     0.0026566711 
    173000   0.018260211   -0.48340887     0.012191613   -0.44383047     0.00084434791
    174000   0.018133021   -0.48148319     0.012425379   -0.44186179    -0.0012397895 
    175000   0.018405658   -0.48524145     0.012579087   -0.44505744     0.00065300095
    176000   0.019569362   -0.48690034     0.013173352   -0.44437673     0.0020066748 
    177000   0.019267892   -0.49104557     0.012932751   -0.44921471    -0.0026033116 
    178000   0.018909465   -0.49269604     0.013250687   -0.45108481     0.0052147507 
    179000   0.019527658   -0.49435276     0.013977147   -0.45108791    -0.0020936192 
    180000   0.020577833   -0.49655955     0.014445917   -0.45125087    -0.0037848481 
    181000   0.020433229   -0.49918642     0.014772281   -0.45376825    -0.0059458994 
    182000   0.020732822   -0.50206567     0.014266713   -0.45670374    -0.00099726041
    183000   0.020368011   -0.50636092     0.014272499   -0.46154035     0.00065255814
    184000   0.019873153   -0.50780059     0.014120549   -0.46387416    -0.00043467729
    185000   0.020531126   -0.50920999     0.014542074   -0.4638752      0.0010624425 
    186000   0.020278989   -0.51354859     0.013955486   -0.46917855    -9.5507057e-05
    187000   0.020189708   -0.51445332     0.014398486   -0.46977418     0.0034617121 
    188000   0.020316943   -0.51797357     0.014630336   -0.47287175     0.0025046567 
    189000   0.021009477   -0.52120734     0.01514497    -0.47455222     0.0060608063 
    190000   0.021780881   -0.52283128     0.015384883   -0.47477929     0.0049746841 
    191000   0.022000999   -0.52781892     0.015309162   -0.47951252     0.005514454  
    192000   0.021523754   -0.52727046     0.015032827   -0.47995617    -0.00063117617
    193000   0.022925986   -0.53047718     0.015332611   -0.48076003     0.0013037246 
    194000   0.022233394   -0.53267682     0.01605421    -0.48327682     0.0015917543 
    195000   0.021710481   -0.53932763     0.015762796   -0.49100332    -0.00087383801
    196000   0.02237708    -0.54462644     0.016270276   -0.49479487    -0.0013706871 
    197000   0.022800233   -0.54435134     0.016131671   -0.49402373    -0.00042502617
    198000   0.022950172   -0.5471799      0.01631651    -0.49644258    -0.0011893064 
    199000   0.022570515   -0.55183069     0.015726212   -0.50225308     0.0037669037 
    200000   0.022290535   -0.55257213     0.015940467   -0.50320017    -0.0065074667 
    201000   0.022588956   -0.55386129     0.016290519   -0.50369171    -0.0028694975 
    202000   0.022706908   -0.55679929     0.017224701   -0.50551862     0.0032525826 
    203000   0.023227935   -0.56254227     0.017548489   -0.51015638    -0.0045735387 
    204000   0.023011471   -0.56347995     0.016345032   -0.51262216     0.0034930108 
    205000   0.023196306   -0.56595742     0.017245037   -0.51392241     0.0011627554 
    206000   0.023647357   -0.57045059     0.016775106   -0.51820903     0.0012529997 
    207000   0.023675062   -0.57075521     0.017491551   -0.51775564    -0.0029768922 
    208000   0.023521929   -0.57321249     0.01700278    -0.52093137    -0.0028571833 
    209000   0.023353618   -0.5760863      0.01705324    -0.52400715    -0.004112165  
    210000   0.024240408   -0.58178869     0.017787766   -0.52764501    -0.00575201   
    211000   0.023892417   -0.58247397     0.017502382   -0.52913759    -0.0015652117 
    212000   0.023587871   -0.58356492     0.016017189   -0.53217049     0.0016085036 
    213000   0.023493474   -0.58557201     0.015952732   -0.53438361     0.0038764497 
    214000   0.022870768   -0.58719434     0.015868067   -0.53702455     0.0022276708 
    215000   0.022918855   -0.59213256     0.015826222   -0.54193249     0.0016141542 
    216000   0.022712301   -0.59252574     0.01586989    -0.5425918     -0.00092801173
    217000   0.023372718   -0.59344539     0.016050744   -0.5423401      0.0008210922 
    218000   0.023491545   -0.59596803     0.016304098   -0.54443116     0.0028595292 
    219000   0.024057039   -0.59931424     0.016635415   -0.54659792     0.0016035925 
    220000   0.023402674   -0.60415363     0.01653483    -0.55251932     0.0031726657 
    221000   0.023275352   -0.60312984     0.016861428   -0.55135989     0.00357653   
    222000   0.024070626   -0.60542078     0.016873958   -0.55244554     0.00096351088
    223000   0.023684624   -0.60685574     0.016869338   -0.55446405     0.0019097738 
    224000   0.024447999   -0.61211207     0.016846356   -0.55859845     0.0019418132 
    225000   0.024139355   -0.613013       0.016675545   -0.56013309     0.0024337182 
    226000   0.024180379   -0.61506198     0.017390935   -0.56140516    -0.00083822025
    227000   0.024377803   -0.61841701     0.017158968   -0.56469606     0.00092150812
    228000   0.024255678   -0.61953061     0.016879531   -0.56627226     0.0034917729 
    229000   0.024627775   -0.62272592     0.017793336   -0.56799568    -0.0049229745 
    230000   0.024993671   -0.62444031     0.017824248   -0.5691304      0.0082411685 
    231000   0.024882523   -0.6267262      0.017664799   -0.57174243     0.0033127881 
    232000   0.024439243   -0.63077527     0.017005118   -0.57711602    -0.00066585873
    233000   0.024515555   -0.6283599      0.017349121   -0.57424219     0.0043258725 
    234000   0.025258963   -0.63451534     0.017276071   -0.57935572     0.0018420825 
    235000   0.02524582    -0.63375774     0.017950524   -0.57794338     0.0047406574 
    236000   0.024880981   -0.63471162     0.017230631   -0.58016433     0.0020656868 
    237000   0.025709227   -0.63795383     0.017828854   -0.58156611    -0.00010089298
    238000   0.025501669   -0.63766618     0.017290182   -0.58212843     0.0087894333 
    239000   0.025580557   -0.64225491     0.017988526   -0.5859005      0.0042541023 
    240000   0.025602444   -0.63990432     0.018107865   -0.58339775     0.0027847243 
    241000   0.025653615   -0.64352086     0.018144152   -0.58690125     0.00087166402
    242000   0.025310266   -0.64492223     0.018075034   -0.58888669    -0.0015354408 
    243000   0.026339309   -0.64600956     0.018072412   -0.58843328     0.0045581304 
    244000   0.026284459   -0.65000625     0.018582221   -0.59200243     0.0050616103 
    245000   0.026214868   -0.65037088     0.018627651   -0.592426      -0.0013543316 
    246000   0.025854352   -0.651221       0.018113719   -0.59433076     0.00099420669
    247000   0.026219842   -0.65481962     0.018529571   -0.59696536     0.0022080656 
    248000   0.026242148   -0.65685785     0.018430839   -0.59906887     0.007483063  
    249000   0.026465616   -0.65941176     0.018372909   -0.60134555     0.00028493432
    250000   0.026436619   -0.66258404     0.018787229   -0.604147      -0.0013717373 
    251000   0.027182125   -0.66447867     0.019069259   -0.60464148    -0.0012608995 
    252000   0.026853492   -0.66314653     0.018867419   -0.60400408     0.0056860161 
    253000   0.026766896   -0.66517278     0.01888008    -0.60614754    -0.0017114041 
    254000   0.026528792   -0.66835279     0.018346787   -0.61021795    -0.00187504   
    255000   0.026580362   -0.67277398     0.018895784   -0.6140128      0.00065458078
    256000   0.02684828    -0.66960012     0.019065961   -0.61026693     0.0079281241 
    257000   0.02749989    -0.67148517     0.019160907   -0.61107975     0.0013990359 
    258000   0.026700693   -0.67349361     0.019024294   -0.61442344     0.0019818031 
    259000   0.027404333   -0.67557166     0.01935884    -0.61511163    -0.0015464595 
    260000   0.026907812   -0.67682276     0.018875484   -0.61759076     0.011842846  
    261000   0.026979751   -0.67682735     0.019078135   -0.61728481     0.0096945937 
    262000   0.027696784   -0.68197976     0.019495771   -0.62094418     0.0036332514 
    263000   0.028029297   -0.68049865     0.019556228   -0.6189039      0.0091834339 
    264000   0.028517139   -0.68683161     0.020389378   -0.62367204     0.0060029737 
    265000   0.028561781   -0.68438386     0.020378315   -0.62116841     0.01239122   
    266000   0.028068154   -0.68419134     0.019821791   -0.62227275     0.0044325746 
    267000   0.028565497   -0.68874655     0.02028123    -0.6256226     -0.00096232439
    268000   0.028381568   -0.68929318     0.019966588   -0.62675973     0.0072786343 
    269000   0.028498668   -0.68989374     0.020020071   -0.62713118     0.0055386778 
    270000   0.027928359   -0.6895161      0.020318861   -0.62731011     0.0059852785 
    271000   0.028702839   -0.69447799     0.020690318   -0.63073897     0.0071034709 
    272000   0.028601931   -0.69461725     0.020053549   -0.63166634     0.0065978233 
    273000   0.028529421   -0.6981507      0.020004698   -0.63535739     0.0080099652 
    274000   0.028934382   -0.69790779     0.020595354   -0.63391646     0.0034253941 
    275000   0.029743865   -0.69865669     0.020631874   -0.63341477     0.0024150668 
    276000   0.029116076   -0.69875359     0.020463712   -0.6346214      0.0021076852 
    277000   0.029023534   -0.69950406     0.020845963   -0.63512841     0.0016450228 
    278000   0.028699373   -0.70193034     0.020677929   -0.63820891     0.00092267146
    279000   0.029793338   -0.70294517     0.021947892   -0.63631303     0.00093790463
    280000   0.030080975   -0.70417177     0.021503801   -0.63755233    -0.0020325383 
    281000   0.03041851    -0.70486781     0.02165657    -0.63758936     0.0077320187 
    282000   0.030662254   -0.70560001     0.022312041   -0.63730053     0.0064466733 
    283000   0.030727962   -0.70846159     0.022114307   -0.64026129     0.012328699  
    284000   0.030146438   -0.71615962     0.021562245   -0.64938356     0.00045079028
    285000   0.0308813     -0.71191305     0.022025478   -0.6435716      0.0053581883 
    286000   0.030238699   -0.71277745     0.021090867   -0.64633439     0.0010126048 
    287000   0.030683304   -0.71527419     0.02195708    -0.64729809     0.0029798529 
    288000   0.031135003   -0.72062607     0.022691624   -0.65123797    -0.0020754043 
    289000   0.031423651   -0.72165749     0.022002648   -0.65252545     0.001598493  
    290000   0.031476425   -0.71804558     0.022596761   -0.64824028    -0.0057617103 
    291000   0.031667926   -0.72632378     0.022531652   -0.65629637    -0.00040763843
    292000   0.031702543   -0.72661398     0.022544418   -0.65652188    -0.0024118911 
    293000   0.031290499   -0.72616747     0.02236143    -0.65687635     0.0045089336 
    294000   0.031533147   -0.72672783     0.023004974   -0.65642924     0.00086610226
    295000   0.032018977   -0.73238931     0.022737211   -0.66162983     0.0062879587 
    296000   0.031559216   -0.73072981     0.022565202   -0.66083189     0.0061449355 
    297000   0.031315817   -0.73493882     0.022382831   -0.66558833     0.0034878139 
    298000   0.031415756   -0.73438703     0.022381994   -0.66488748    -0.00012603786
    299000   0.03146433    -0.73921307     0.022476778   -0.66954589    -0.0032224072 
    300000   0.031932233   -0.73739698     0.023263849   -0.66624097     0.0072788611 
    301000   0.032057663   -0.74226636     0.02354381    -0.67064226     0.0026611609 
    302000   0.032104248   -0.73756402     0.022698822   -0.66671504     0.0022011919 
    303000   0.031971614   -0.73839896     0.023019282   -0.66742844    -0.00059441654
    304000   0.032134209   -0.74261565     0.02303393    -0.67138663     0.0029384392 
    305000   0.032377271   -0.74170707     0.022411404   -0.67073602     0.003936103  
    306000   0.032674889   -0.74598618     0.022989421   -0.67399075     0.0059730687 
    307000   0.033316519   -0.74646739     0.023267375   -0.67323169     0.0083699332 
    308000   0.033477232   -0.74880125     0.023675588   -0.67491629     0.0013535143 
    309000   0.032890124   -0.74915175     0.02331507    -0.67650786    -0.0028613391 
    310000   0.033213374   -0.74935149     0.023775861   -0.67576199     0.0062726308 
    311000   0.033231415   -0.75182706     0.023934834   -0.67805154     0.0005843603 
    312000   0.034005962   -0.74909556     0.024174259   -0.67391894     0.0071561546 
    313000   0.033622188   -0.75409928     0.023760823   -0.67991168     0.0016503885 
    314000   0.033742232   -0.75446767     0.024096069   -0.67976479     0.004332998  
    315000   0.033870625   -0.75490406     0.02382595    -0.68027873    -0.0033735674 
    316000   0.034306287   -0.75714596     0.024911739   -0.68078143     0.0051653406 
    317000   0.034597813   -0.7580958      0.0245978     -0.68160798    -0.0002398456 
    318000   0.034323793   -0.76293103     0.024042555   -0.68740943     0.0062179167 
    319000   0.034746521   -0.76509995     0.024919608   -0.68806729     0.0050328819 
    320000   0.03420238    -0.76591055     0.025141722   -0.68947188     0.0093731925 
    321000   0.03386576    -0.76794378     0.025138993   -0.6920127      0.007272702  
    322000   0.034476909   -0.76735022     0.024528357   -0.69111317     0.0029551614 
    323000   0.034994754   -0.77158568     0.025314675   -0.69378565     0.0070557794 
    324000   0.034744028   -0.76869112     0.024685328   -0.69189647     0.0087146033 
    325000   0.035329249   -0.76882255     0.024992612   -0.6908429      0.0038252555 
    326000   0.035454953   -0.76915611     0.025791374   -0.69018917     0.00029044809
    327000   0.035015235   -0.77114893     0.024961597   -0.69367126     0.0071819299 
    328000   0.034678912   -0.77354434     0.024443706   -0.69708898     0.0012848462 
    329000   0.034630303   -0.77307171     0.024849174   -0.69628379    -0.0023854386 
    330000   0.034814362   -0.77368328     0.025357389   -0.69611109     0.0050011313 
    331000   0.03517691    -0.77703103     0.025578192   -0.69869428    -0.00058621407
    332000   0.0353929     -0.77959779     0.025516697   -0.7009986      0.00075075608
    333000   0.035383723   -0.78378484     0.025355092   -0.70536101     0.0015484511 
    334000   0.035529848   -0.78417698     0.02519322    -0.70569587     0.0036780449 
    335000   0.035233798   -0.78168789     0.025651025   -0.70319299     0.0070591799 
    336000   0.037024555   -0.77904056     0.026143158   -0.69736774    -0.0003681402 
    337000   0.036515786   -0.78855281     0.026087747   -0.70769845     0.0073253938 
    338000   0.036411613   -0.78828595     0.027109297   -0.70656628     0.004164211  
    339000   0.037353099   -0.78542554     0.026182329   -0.70322079     0.0019893536 
    340000   0.036808785   -0.78650195     0.026481893   -0.704814       0.0062044127 
    341000   0.037196145   -0.79242899     0.027012886   -0.70962909     0.0042386736 
    342000   0.036740991   -0.79353117     0.027187675   -0.71123912     0.0022564338 
    343000   0.037204308   -0.78954667     0.026853122   -0.70689429    -0.00013157604
    344000   0.038135488   -0.79092713     0.027825753   -0.70590553     0.013029636  
    345000   0.038553728   -0.79039697     0.028538634   -0.7040352     -0.00072056698
    346000   0.038005213   -0.79213042     0.02715721    -0.70797275     0.00083714162
    347000   0.038099443   -0.79850774     0.027597631   -0.71376832     0.0082024707 
    348000   0.037655485   -0.7953833      0.02741303    -0.71149433     0.0015967282 
    349000   0.037443132   -0.80158023     0.027247054   -0.71817573     0.0091560889 
    350000   0.037719698   -0.80213903     0.027009435   -0.71855735     0.0045772155 
    351000   0.038058405   -0.79962484     0.027317379   -0.71522722     0.0036702895 
    352000   0.038044762   -0.80311816     0.028393492   -0.71766489    -0.00039723052
    353000   0.038531998   -0.80320959     0.027974211   -0.71744484     0.0097759179 
    354000   0.038925252   -0.81007905     0.027792464   -0.72390625     0.0067662586 
    355000   0.038278721   -0.81028137     0.027901145   -0.72496955     0.0055576592 
    356000   0.039028517   -0.8126592      0.028136803   -0.72598717     0.0048025973 
    357000   0.038844919   -0.8174026      0.027887609   -0.73125513     0.0038198391 
    358000   0.038641019   -0.81125401     0.027514898   -0.72578506     0.0029898329 
    359000   0.03827528    -0.81511752     0.028074628   -0.72963738     0.0048984184 
    360000   0.038715664   -0.81587692     0.028126373   -0.72968455     0.0041876312 
    361000   0.038394021   -0.81584087     0.027769895   -0.73048737     0.0033470563 
    362000   0.038885569   -0.81885952     0.028432442   -0.73210625     0.0084511035 
    363000   0.039155186   -0.81963232     0.028906246   -0.73200087     0.0057357754 
    364000   0.03957494    -0.82072735     0.028069031   -0.73330357     0.005876317  
    365000   0.039436971   -0.81966217     0.02898548    -0.73152886    -0.00053722687
    366000   0.040078295   -0.8195278      0.029283453   -0.73013466    -0.0015977525 
    367000   0.039500336   -0.81990021     0.029712942   -0.73094441     0.0024006956 
    368000   0.039481709   -0.82633372     0.028510324   -0.73860848    -0.002174902  
    369000   0.03924924    -0.82612711     0.02824729    -0.73901356    -0.0023517021 
    370000   0.039541308   -0.82804664     0.029019101   -0.73972323     0.0053322964 
    371000   0.040320006   -0.8291671      0.02948591    -0.73920899    -0.0031224124 
    372000   0.041078481   -0.82575898     0.029754985   -0.73439422    -0.0054106835 
    373000   0.041054991   -0.82842976     0.029935054   -0.73692016     0.0056503651 
    374000   0.040136834   -0.82915044     0.02985482    -0.73909814     0.0040575755 
    375000   0.04059866    -0.83017324     0.030389755   -0.73889335    -0.0014521963 
    376000   0.039982739   -0.83032726     0.030012942   -0.74034795     0.0029057886 
    377000   0.040542164   -0.83181958     0.029896106   -0.74111807     0.0018068149 
    378000   0.040631733   -0.82658767     0.030589943   -0.73505799    -0.0033458125 
    379000   0.040756782   -0.82876649     0.030080517   -0.73755869    -0.0051505894 
    380000   0.041534755   -0.83442336     0.030484968   -0.74164429     0.0024369273 
    381000   0.040722247   -0.83343895     0.030614866   -0.7417486     -0.0028186014 
    382000   0.04184876    -0.83147174     0.030968738   -0.73773796    -0.00038369072
    383000   0.041264809   -0.84119654     0.030786807   -0.74852051     0.007416405  
    384000   0.041457754   -0.84293739     0.030931942   -0.74982684     0.00095674897
    385000   0.042355024   -0.84447535     0.030230993   -0.75072002    -0.0010256442 
    386000   0.04199069    -0.84606806     0.030947363   -0.75214279    -0.0045092185 
    387000   0.041851258   -0.8463192      0.030732301   -0.75281812     0.0043215337 
    388000   0.04160242    -0.84880505     0.030679204   -0.75573027    -0.0035292005 
    389000   0.041148105   -0.84453283     0.030225608   -0.75259303     0.0024356439 
    390000   0.041704883   -0.85279033     0.030523197   -0.75971789    -5.9553039e-05
    391000   0.042356771   -0.84857287     0.032755767   -0.75229014     0.0017879762 
    392000   0.043840385   -0.85316333     0.032280044   -0.7551312      0.00096610729
    393000   0.043195647   -0.85530034     0.032974159   -0.75754107     0.002512164  
    394000   0.043198574   -0.84888176     0.032121399   -0.75197086     0.00978995   
    395000   0.04284359    -0.85308327     0.032576492   -0.75624969    -0.001386856  
    396000   0.042695345   -0.85930242     0.031748011   -0.76351966     0.012260341  
    397000   0.04312562    -0.8571435      0.031839562   -0.76062386     0.0026154116 
    398000   0.042447317   -0.86158681     0.031235142   -0.76668891     0.0092951587 
    399000   0.042764608   -0.85997693     0.032305775   -0.76353252     0.014603018  
    400000   0.042661868   -0.86632416     0.032684768   -0.76965484     0.0030577829 
    401000   0.043074299   -0.85975426     0.032769376   -0.76238177    -0.0019286554 
    402000   0.043283962   -0.86234389     0.031952876   -0.76547345     0.0045304344 
    403000   0.043267031   -0.86061221     0.03328923    -0.76243081     0.0040574915 
    404000   0.04333734    -0.86284812     0.03338272    -0.76446778    -0.0051468606 
    405000   0.04386016    -0.86828149     0.032726813   -0.76977293    -0.0039687542 
    406000   0.04301817    -0.8653403      0.033141994   -0.76767938    -0.0082337979 
    407000   0.042991762   -0.85927871     0.033232167   -0.76156722     0.00049090126
    408000   0.04335834    -0.86479952     0.033538306   -0.76623209    -0.0075391793 
    409000   0.043997285   -0.86721321     0.033173715   -0.76805208     0.001353112  
    410000   0.043353894   -0.86849323     0.033221083   -0.7702497      0.0032409018 
    411000   0.044623712   -0.86968907     0.034766235   -0.76799591     0.011078329  
    412000   0.04502802    -0.86742875     0.034466097   -0.76542934     0.00034429233
    413000   0.045407713   -0.87193838     0.034838951   -0.76899664    -0.0070910014 
    414000   0.044555108   -0.87325292     0.035353746   -0.77107513    -0.0080747958 
    415000   0.044977759   -0.87663398     0.034767248   -0.7744088     -0.0024082971 
    416000   0.04496394    -0.87698684     0.034909606   -0.77464002     0.0041930135 
    417000   0.044945436   -0.87560895     0.03501322    -0.77318627     0.0071968274 
    418000   0.04504664    -0.87814863     0.035389894   -0.77519749     0.0041473563 
    419000   0.044166863   -0.88249283     0.034981649   -0.78126943    -0.0052770633 
    420000   0.044900463   -0.87656194     0.034370423   -0.77484951     0.0081299859 
    421000   0.04505736    -0.88004835     0.03415166    -0.77831937    -0.00033532375
    422000   0.044813101   -0.88640705     0.034966195   -0.78422988    -0.0021535229 
    423000   0.045059602   -0.87961607     0.034554151   -0.77748124    -0.0016551271 
    424000   0.044970434   -0.88383813     0.035034168   -0.78135702     0.002707621  
    425000   0.045089399   -0.88393106     0.03607793    -0.78022776    -0.0047774916 
    426000   0.045188122   -0.88543713     0.03632129    -0.7813424      0.011880893  
    427000   0.045224727   -0.88641597     0.036179881   -0.78240775    -0.0016600049 
    428000   0.045785416   -0.88740193     0.036051967   -0.7826807      0.0022009501 
    429000   0.046425681   -0.89048722     0.036692185   -0.7841655      0.00050815849
    430000   0.046341621   -0.8878039      0.036352148   -0.78194828     0.0032655168 
    431000   0.04568115    -0.89191051     0.036839829   -0.7865578      0.011768292  
    432000   0.046255806   -0.89211477     0.036367233   -0.78637278    -0.0010957434 
    433000   0.04588171    -0.89417904     0.036431181   -0.78893418     0.0020096178 
    434000   0.046182958   -0.89276791     0.037027385   -0.78647503    -0.0055653096 
    435000   0.046911021   -0.89200312     0.037286604   -0.78435906    -0.0073236251 
    436000   0.047034987   -0.89288336     0.038108999   -0.78423098    -0.009433044  
    437000   0.047596413   -0.89866321     0.038884161   -0.78839364    -0.0037139284 
    438000   0.047281752   -0.89391767     0.037109699   -0.7858945     -0.0051311742 
    439000   0.047548302   -0.89393687     0.038706459   -0.78391716    -0.0020204408 
    440000   0.047668181   -0.89893842     0.039798334   -0.78764704    -0.014387414  
    441000   0.048025533   -0.90163833     0.039903236   -0.78970609    -0.0025695532 
    442000   0.048494232   -0.90667624     0.039451609   -0.79449267    -0.0013098332 
    443000   0.048006823   -0.90216209     0.03902193    -0.79113922    -0.0011936874 
    444000   0.047818995   -0.90658592     0.039666859   -0.79519982    -0.011380353  
    445000   0.047866553   -0.9062814      0.03987762    -0.79461321    -0.011071459  
    446000   0.048626806   -0.90501746     0.039213027   -0.79287364    -0.0067371755 
    447000   0.048303317   -0.90929158     0.039122129   -0.79772382    -0.0052562817 
    448000   0.048050702   -0.91325708     0.039373313   -0.80181702    -0.0021242503 
    449000   0.049768612   -0.90909221     0.039111654   -0.79533727    -0.011581159  
    450000   0.049082886   -0.91138496     0.040972654   -0.79679747    -0.012575427  
    451000   0.049319728   -0.90824809     0.039917944   -0.7943601      0.0026723366 
    452000   0.047769397   -0.91382062     0.03955752    -0.80261825    -0.0054532539 
    453000   0.048681697   -0.91112376     0.039843179   -0.79826746    -0.013981767  
    454000   0.049136357   -0.91718538     0.040500143   -0.80299021    -0.00047928234
    455000   0.049773901   -0.91870304     0.040314726   -0.80373709    -0.0054815443 
    456000   0.050147976   -0.91580443     0.041906672   -0.7986855     -0.013347432  
    457000   0.048963909   -0.91957853     0.04193812    -0.80420402    -0.020734945  
    458000   0.050217609   -0.92467392     0.041230956   -0.80812627    -0.0084851896 
    459000   0.049253956   -0.91231945     0.041471845   -0.7969762     -9.6345239e-05
    460000   0.049636684   -0.92140266     0.042379525   -0.80457771    -0.012072887  
    461000   0.050374921   -0.92110019     0.042251771   -0.80329579    -0.010966213  
    462000   0.050486665   -0.92527502     0.042238067   -0.80731673    -0.004647505  
    463000   0.050030569   -0.92499771     0.042051432   -0.80791011    -0.00660428   
    464000   0.049955246   -0.91993247     0.041991711   -0.80301756    -0.0055327092 
    465000   0.050968746   -0.92563565     0.042069447   -0.80712295     0.0059625019 
    466000   0.051182766   -0.92593646     0.042592184   -0.80658004    -0.00069370528
    467000   0.051670166   -0.92970032     0.043366022   -0.80883905    -0.004288292  
    468000   0.050200887   -0.92704527     0.043420991   -0.80833267     0.0053528723 
    469000   0.051012444   -0.93237653     0.043417582   -0.81245015    -0.01087348   
    470000   0.051054781   -0.93614576     0.044369708   -0.81520377    -0.0034773967 
    471000   0.050440326   -0.94010992     0.044671295   -0.8197879     -0.0083600089 
    472000   0.050565679   -0.93582463     0.043654669   -0.81633122     0.0009240416 
    473000   0.051782079   -0.93158999     0.044100603   -0.80982629     0.0023091594 
    474000   0.051906857   -0.93717442     0.045317848   -0.81400633    -0.0030314913 
    475000   0.051686629   -0.93403282     0.044874085   -0.81163879     0.00057907801
    476000   0.051391724   -0.93391954     0.044181926   -0.81265998    -0.0070269755 
    477000   0.05113194    -0.93905627     0.04516775    -0.81720051    -0.0086061368 
    478000   0.050965363   -0.93922919     0.045879751   -0.81691126    -0.0042207772 
    479000   0.051543573   -0.94399359     0.04342044    -0.82326777     0.0046932173 
    480000   0.052941962   -0.94173588     0.044424511   -0.81790867    -0.0027135346 
    481000   0.051237586   -0.94446058     0.045269463   -0.82234465    -0.0093516655 
    482000   0.052404373   -0.95243548     0.044442091   -0.82939697     0.0088934225 
    483000   0.052173618   -0.94484668     0.044861583   -0.82173477    -0.0011101136 
    484000   0.05198356    -0.94310632     0.044634539   -0.8205065      0.0067825832 
    485000   0.052864581   -0.94857264     0.045781632   -0.82350437    -0.0064246582 
    486000   0.05337483    -0.94746377     0.045051436   -0.82236042    -0.002200824  
    487000   0.053112849   -0.94866264     0.045416433   -0.82358721     0.0087406895 
    488000   0.054352556   -0.95368889     0.045669579   -0.82650099     0.0042985305 
    489000   0.053470031   -0.95275123     0.046378216   -0.82617831    -0.005462159  
    490000   0.052426814   -0.95842557     0.04673809    -0.83305741    -0.00035972413
    491000   0.052830097   -0.95316664     0.046852773   -0.82707894    -0.0090066488 
    492000   0.052872318   -0.95733648     0.047350332   -0.83068791     0.0030575311 
    493000   0.053799647   -0.95305367     0.048004387   -0.82436023     0.013299348  
    494000   0.053236132   -0.95368976     0.048154117   -0.82569175     0.002945596  
    495000   0.053006914   -0.95183873     0.047851499   -0.82448712     0.0045236069 
    496000   0.05380396    -0.95597752     0.049264322   -0.82601767     0.00071748923
    497000   0.054412397   -0.96371337     0.048075668   -0.83402964    -8.5451999e-05
    498000   0.053632188   -0.95964227     0.047829565   -0.8313748     -0.0037369025 
    499000   0.05431019    -0.96178219     0.047208111   -0.83311931    -0.0015345207 
    500000   0.054780415   -0.9643175      0.048807845   -0.83334963     0.0097681013 
Loop time of 418.955 on 8 procs for 500000 steps with 7750 atoms

Performance: 103113.787 tau/day, 1193.447 timesteps/s, 9.249 Matom-step/s
92.8% CPU use with 8 MPI tasks x 1 OpenMP threads

MPI task timing breakdown:
Section |  min time  |  avg time  |  max time  |%varavg| %total
---------------------------------------------------------------
Pair    | 85.273     | 97.936     | 112.17     |  92.7 | 23.38
Bond    | 19.377     | 20.989     | 22.633     |  21.8 |  5.01
Neigh   | 0.9039     | 0.90453    | 0.90515    |   0.0 |  0.22
Comm    | 45.181     | 60.833     | 74.703     | 127.8 | 14.52
Output  | 5.7547     | 5.8364     | 5.9029     |   1.9 |  1.39
Modify  | 228.14     | 228.81     | 229.32     |   2.7 | 54.61
Other   |            | 3.645      |            |       |  0.87

Nlocal:         968.75 ave        1450 max         741 min
Histogram: 3 1 1 0 1 1 0 0 0 1
Nghost:        1373.62 ave        1658 max        1125 min
Histogram: 1 1 1 0 1 2 0 0 1 1
Neighs:              0 ave           0 max           0 min
Histogram: 8 0 0 0 0 0 0 0 0 0
FullNghs:      36432.2 ave       61602 max       18501 min
Histogram: 2 0 2 1 0 0 1 1 0 1

Total # of neighbors = 291458
Ave neighs/atom = 37.607484
Ave special neighs/atom = 2.1612903
Neighbor list builds = 556
Dangerous builds = 0

unfix ThermoLng

# Now we let the system to create the polymeric network
fix ThermoLng all langevin ${temp} ${temp} ${damp} ${seed3} # Brownian Dynamics: langevin + nve
fix ThermoLng all langevin 0.05 ${temp} ${damp} ${seed3} 
fix ThermoLng all langevin 0.05 0.05 ${damp} ${seed3} 
fix ThermoLng all langevin 0.05 0.05 1 ${seed3} 
fix ThermoLng all langevin 0.05 0.05 1 2010 
run ${steps}
run 8000000
WARNING: Using a manybody potential with bonds/angles/dihedrals and special_bond exclusions (src/pair.cpp:250)
Hybrid pair style last /omp style table/omp
Last active /omp style is angle_style harmonic/omp
Per MPI rank memory allocation (min/avg/max) = 23.86 | 23.87 | 23.89 Mbytes
   Step          Temp          E_pair         E_mol          TotEng         Press     
    500000   0.054780415   -0.9643175      0.048807845   -0.83334963     0.0073066217 
    501000   0.053897637   -0.96989085     0.048976952   -0.84007788     0.0070533674 
    502000   0.053966384   -0.96546303     0.049104376   -0.83541952    -0.0038303624 
    503000   0.054112838   -0.96356199     0.049636222   -0.83276698     0.0055841513 
    504000   0.054748569   -0.9633325      0.049467875   -0.83175236     0.0047642556 
    505000   0.054784562   -0.96854526     0.049476044   -0.83690297    -0.0050869036 
    506000   0.053816963   -0.97152042     0.048964629   -0.84184076    -0.0088193028 
    507000   0.05440126    -0.96639734     0.049196848   -0.83560913    -0.0064724132 
    508000   0.054430397   -0.96683082     0.050763731   -0.83443203    -0.0056422014 
    509000   0.053711378   -0.96528812     0.048888727   -0.83584272     0.0010776957 
    510000   0.054286969   -0.96496831     0.048651671   -0.83489669     0.0070453917 
    511000   0.054201725   -0.97219541     0.050035988   -0.84086733    -0.0039114525 
    512000   0.054552513   -0.97110023     0.049349439   -0.83993258    -0.0077555756 
    513000   0.055202403   -0.96859542     0.048489744   -0.83731276     0.0025950133 
    514000   0.053230269   -0.96081062     0.04971727    -0.83125825    -0.0024746547 
    515000   0.054655936   -0.97501323     0.050201908   -0.842838      -0.0018139427 
    516000   0.054529472   -0.9722031      0.049059278   -0.84136017     0.0076686313 
    517000   0.054041777   -0.96239712     0.049641504   -0.83170341     0.0024435526 
    518000   0.054273168   -0.97520591     0.050106868   -0.84369979     0.00941745   
    519000   0.054512627   -0.97107604     0.050572422   -0.83874523     0.00038026482
    520000   0.053887829   -0.9732284      0.05092223    -0.84148485    -0.012488639  
    521000   0.055723431   -0.97168422     0.052054984   -0.83605487    -0.0025188166 
    522000   0.055543143   -0.97653542     0.051445516   -0.84178594    -0.00084315953
    523000   0.054277596   -0.97262697     0.050336826   -0.84088426     0.007568896  
    524000   0.055691251   -0.98047939     0.05047126    -0.84648203    -0.014573713  
    525000   0.054654885   -0.98224523     0.051241761   -0.84903172    -0.0089115488 
    526000   0.054224995   -0.98190792     0.050353232   -0.85022769    -0.010845411  
    527000   0.053764979   -0.98090939     0.051071151   -0.84920118     0.0034301505 
    528000   0.05443695    -0.9850752      0.051425282   -0.85200503    -0.00049124533
    529000   0.053572739   -0.98427662     0.052466747   -0.85146114     0.014114798  
    530000   0.054502169   -0.98803846     0.052106034   -0.85418972     0.0042884177 
    531000   0.05489759    -0.98917193     0.052020973   -0.85481519    -0.0049411782 
    532000   0.053970292   -0.99051309     0.051524581   -0.85804352    -0.0074348434 
    533000   0.05425957    -0.98683211     0.05306639    -0.85238687     0.0040236287 
    534000   0.055424344   -0.98513629     0.051802964   -0.85020754    -0.0094797151 
    535000   0.054728145   -0.98360583     0.052455021   -0.84906919    -0.031565073  
    536000   0.05426466    -0.99126672     0.05299849    -0.85688175    -0.0066351145 
    537000   0.05489561    -0.99203537     0.053653029   -0.85604955    -0.0041756778 
    538000   0.055166804   -0.98446775     0.05353603    -0.84819219    -0.0083560349 
    539000   0.054972465   -0.9945207      0.052312296   -0.85976034    -0.0059981489 
    540000   0.053856242   -0.98916453     0.052783696   -0.85560689    -0.0018593392 
    541000   0.053331186   -0.99561064     0.052496299   -0.86312788     0.0084593668 
    542000   0.054100906   -0.99775787     0.052690953   -0.86392603    -0.0014523878 
    543000   0.054335987   -0.99663679     0.053011974   -0.86213135    -0.002281208  
    544000   0.053867989   -0.99627497     0.052624952   -0.86285846     0.0018985004 
    545000   0.054186984   -0.98817483     0.051797461   -0.85510738     0.012023416  
    546000   0.053906721   -0.98298848     0.052900625   -0.84923821    -0.0049771243 
    547000   0.054175494   -0.98455107     0.052513791   -0.85078452    -0.0028679141 
    548000   0.05409257    -0.99542934     0.053448475   -0.86085248    -0.0067033622 
    549000   0.054945178   -0.99296692     0.052217181   -0.8583426      0.0014726816 
    550000   0.053514738   -0.99199701     0.053942018   -0.85779325     0.015170275  
    551000   0.055270827   -0.99529469     0.053019431   -0.85937972     0.012446787  
    552000   0.055008191   -0.99861546     0.05436964    -0.86174418     0.0090195537 
    553000   0.05491307    -1.0012579      0.05367933    -0.86521962    -0.0059829668 
    554000   0.054163883   -1.0022569      0.054633486   -0.86638809    -0.0077067906 
    555000   0.053346763   -0.99760212     0.053378065   -0.86421424     0.0098959801 
    556000   0.053818906   -1.0069881      0.053941988   -0.87232814    -0.0021628966 
    557000   0.054398498   -1.0036208      0.054325876   -0.86770773     0.0062530978 
    558000   0.054584758   -1.0047171      0.052933206   -0.86991728    -0.0012313367 
    559000   0.054283854   -1.0029452      0.054314276   -0.86721564     0.0027776332 
    560000   0.054126128   -1.0042746      0.054549563   -0.86854633     0.0075220509 
    561000   0.053992286   -1.0068223      0.054956179   -0.87088812    -0.0094281916 
    562000   0.054618873   -1.0079204      0.054670173   -0.87133249     0.004257398  
    563000   0.054410845   -1.0005886      0.054673719   -0.86430916     0.014830639  
    564000   0.054080237   -1.0076896      0.054873702   -0.87170605    -0.0035481596 
    565000   0.054024231   -1.0032028      0.055469542   -0.86670736    -0.0027703556 
    566000   0.054762358   -1.0059141      0.055572277   -0.86820888    -0.0022153937 
    567000   0.053748808   -1.0075123      0.055303454   -0.87159607     0.0025775361 
    568000   0.054663008   -1.0061703      0.056018889   -0.8681675      0.015083556  
    569000   0.054911153   -1.0077341      0.056270779   -0.86910725     0.014021497  
    570000   0.054562843   -1.0050604      0.056800824   -0.86642583     0.0011225424 
    571000   0.054881235   -1.0017183      0.056067957   -0.86333916     0.0026668005 
    572000   0.055229915   -1.0066223      0.056771265   -0.86701687    -0.000216467  
    573000   0.054957126   -1.0074606      0.055917268   -0.8691183      0.001079009  
    574000   0.055222614   -1.0026863      0.05581082    -0.86405225    -0.002439948  
    575000   0.054253508   -1.0127241      0.058330002   -0.87302431    -0.0097110361 
    576000   0.054639076   -1.0106671      0.057176017   -0.87154301    -0.00018502803
    577000   0.055428409   -1.0099639      0.058074594   -0.86875747    -0.0029431492 
    578000   0.055371465   -1.0062165      0.057090356   -0.86607964     0.0035856415 
    579000   0.054652332   -1.0089586      0.055661824   -0.87132889    -0.0061417238 
    580000   0.054270534   -1.0086609      0.056409119   -0.87085647    -0.010866125  
    581000   0.054914161   -1.0071475      0.058426071   -0.86636087     0.01342166   
    582000   0.055014545   -1.0075296      0.058445564   -0.86657291    -0.0053863951 
    583000   0.05506175    -1.0183521      0.058795808   -0.87697433     0.0075101165 
    584000   0.054829468   -1.0094451      0.059375592   -0.86783587     0.007177131  
    585000   0.054507043   -1.0055335      0.058357418   -0.86542611     0.0055593838 
    586000   0.05472322    -1.0134745      0.059844775   -0.87155553     0.0033297946 
    587000   0.055416846   -1.0130817      0.058871028   -0.87109611     0.011251691  
    588000   0.054919343   -1.0134369      0.059807369   -0.87126114    -0.0041152588 
    589000   0.055043679   -1.0150471      0.060377287   -0.87211499    -0.0068054799 
    590000   0.055307664   -1.01337        0.059801831   -0.87061733     0.0012612746 
    591000   0.055590437   -1.0098381      0.059785188   -0.86667803     0.0022605993 
    592000   0.055726055   -1.0139132      0.058876826   -0.87145806     0.012517012  
    593000   0.054842449   -1.0173733      0.058676255   -0.87644403     0.0063168481 
    594000   0.055703478   -1.0184467      0.061572182   -0.87333012     0.0031404143 
    595000   0.055475531   -1.0116775      0.062371628   -0.86610334     0.007851195  
    596000   0.055880997   -1.0216818      0.060021273   -0.87784985     0.00015772368
    597000   0.054534731   -1.019384       0.060277043   -0.87731543     0.0076908308 
    598000   0.055050841   -1.017574       0.059847205   -0.87516118    -0.00044497227
    599000   0.0552263     -1.0159156      0.059282013   -0.87380482     0.0007873598 
    600000   0.054917557   -1.0319262      0.060343129   -0.8892174     -0.0070063454 
    601000   0.055135816   -1.0213554      0.06101683    -0.87764551    -0.0016250271 
    602000   0.055120025   -1.0207064      0.060993831   -0.87704325    -0.0072200316 
    603000   0.054497212   -1.0208645      0.060189393   -0.87893982    -0.0081597105 
    604000   0.056278074   -1.0241052      0.061899627   -0.87779934     0.0010753942 
    605000   0.055382724   -1.0290442      0.06256158    -0.88341926     0.010881296  
    606000   0.054619477   -1.0218867      0.061751807   -0.87821627     0.02336913   
    607000   0.053908637   -1.0236715      0.063073357   -0.87974565    -0.0020652827 
    608000   0.054154361   -1.0205993      0.061200312   -0.87817794    -0.0014698848 
    609000   0.055242757   -1.02418        0.061551608   -0.87977496     0.006913322  
    610000   0.054787879   -1.0296694      0.062777756   -0.88472046     0.003039107  
    611000   0.05534981    -1.0189377      0.063081704   -0.87284201     0.0054919548 
    612000   0.055726147   -1.0252458      0.062677922   -0.87898943     0.0036910483 
    613000   0.055534583   -1.0340095      0.063529996   -0.8871884      0.00532406   
    614000   0.055928649   -1.0284854      0.062707891   -0.88189539     0.017231472  
    615000   0.05502461    -1.0286513      0.063204367   -0.88292064     0.01203856   
    616000   0.056009536   -1.0277968      0.062919622   -0.88087376     0.006383992  
    617000   0.05619485    -1.0350626      0.064473519   -0.88630769     0.0034866099 
    618000   0.056058606   -1.0280132      0.065457672   -0.87847851     0.018618191  
    619000   0.05579006    -1.0296066      0.064703117   -0.88122917    -0.0036799707 
    620000   0.055119342   -1.0299344      0.06514358    -0.8821225      0.0016042326 
    621000   0.055450105   -1.0370206      0.064816993   -0.88903914    -0.0055086909 
    622000   0.055858696   -1.0337055      0.064640538   -0.88528772     0.0013233219 
    623000   0.055369469   -1.0352361      0.064931056   -0.88726158     0.0011479692 
    624000   0.055781962   -1.0282119      0.06592605    -0.87862369    -0.0075516655 
    625000   0.054650594   -1.0397328      0.064949305   -0.89281818    -0.0043001541 
    626000   0.055419578   -1.0322507      0.064864746   -0.88426727     0.00752158   
    627000   0.054909714   -1.0344211      0.065446298   -0.8866209      0.00013336023
    628000   0.05542868    -1.0326498      0.064337573   -0.88517995    -0.0066702986 
    629000   0.055801882   -1.0308833      0.066825738   -0.8803655     -0.0041592058 
    630000   0.054832924   -1.034999       0.065944628   -0.88681558     0.0053915834 
    631000   0.055073139   -1.034598       0.06571797    -0.88628097     0.0089821536 
    632000   0.054801708   -1.0388563      0.065813297   -0.890851      -0.006639885  
    633000   0.05514727    -1.0317624      0.067677422   -0.88137476    -0.015738046  
    634000   0.05469262    -1.0422328      0.064934868   -0.89526959    -0.010671459  
    635000   0.054203671   -1.0453457      0.06469827    -0.89935241    -0.010019684  
    636000   0.055271345   -1.0356202      0.064810233   -0.88791367    -0.0074223261 
    637000   0.055536957   -1.0482022      0.065559091   -0.89934843     0.0037350544 
    638000   0.055220172   -1.0393763      0.065114589   -0.89144214    -0.012442134  
    639000   0.055738563   -1.035845       0.066854242   -0.88539372    -0.0065021938 
    640000   0.055667373   -1.0425535      0.066913643   -0.89214962    -0.014135478  
    641000   0.056673437   -1.0442861      0.068182761   -0.89110412     0.00054275984
    642000   0.056903669   -1.0420467      0.068532103   -0.88817006    -0.0068748927 
    643000   0.056234316   -1.040391       0.06852708    -0.88752335    -0.0056534101 
    644000   0.055378743   -1.0368152      0.0686281     -0.88512974    -0.0063022558 
    645000   0.055546494   -1.0362316      0.0690227     -0.88389995    -0.013133118  
    646000   0.056293896   -1.0398498      0.067659378   -0.88776046    -0.0033450034 
    647000   0.056269671   -1.0476323      0.069045494   -0.89419318    -0.023443276  
    648000   0.055890222   -1.0416825      0.068578558   -0.8892794      0.0045607797 
    649000   0.056283764   -1.0424349      0.069505979   -0.88851415    -0.02532466   
    650000   0.056264517   -1.0472275      0.068640428   -0.89420115    -0.0044325326 
    651000   0.055715707   -1.0552798      0.069454067   -0.90226299    -0.020098566  
    652000   0.056408697   -1.0510069      0.068152176   -0.89825256    -0.011397853  
    653000   0.05493152    -1.0479421      0.069344253   -0.89621122    -0.021466199  
    654000   0.055956555   -1.054175       0.068819691   -0.90143134     0.012898325  
    655000   0.056007778   -1.0441994      0.068148955   -0.89204966    -0.0067589032 
    656000   0.055418094   -1.0577091      0.066633758   -0.90795894    -0.0061247956 
    657000   0.056404605   -1.0508285      0.065955654   -0.9002769      0.013915183  
    658000   0.056223936   -1.0403925      0.06815604    -0.88791149    -0.0096432558 
    659000   0.056087323   -1.0544651      0.069353414   -0.90099151    -0.0078296573 
    660000   0.056363866   -1.0502427      0.068869142   -0.89683866    -0.013427455  
    661000   0.056283008   -1.0498784      0.0696854     -0.8957794     -0.00060710454
    662000   0.056354783   -1.0490595      0.067196438   -0.89734182     0.0052271181 
    663000   0.054965158   -1.0512632      0.069149843   -0.89967622    -0.010940128  
    664000   0.056383479   -1.0511118      0.067695777   -0.89885175    -0.001168758  
    665000   0.056392253   -1.046258       0.069445023   -0.89223547    -0.0031997542 
    666000   0.056277266   -1.0542377      0.069791348   -0.90004132    -0.0074628385 
    667000   0.056057727   -1.0561683      0.069266313   -0.90282621     0.011480416  
    668000   0.0561845     -1.0515748      0.068943145   -0.89836573    -0.0063122006 
    669000   0.056031565   -1.0502627      0.070572751   -0.89565347    -0.0029020924 
    670000   0.055888218   -1.0589581      0.069267762   -0.90586885    -0.0025011311 
    671000   0.056158626   -1.0575435      0.071119899   -0.90219653    -0.0042394799 
    672000   0.056649758   -1.0574693      0.069551401   -0.90295426    -0.012628017  
    673000   0.05652933    -1.0623524      0.069295083   -0.90827423     0.0090763492 
    674000   0.056156589   -1.0676226      0.070382068   -0.91301648    -0.017187733  
    675000   0.055944261   -1.0561874      0.070707478   -0.90157434    -0.0064043167 
    676000   0.056669315   -1.0490808      0.070344339   -0.89374349    -0.02037707   
    677000   0.055187371   -1.0592502      0.070636591   -0.90584328    -0.0052607271 
    678000   0.056137505   -1.0564688      0.071548016   -0.9007254     -0.028498113  
    679000   0.056553191   -1.0632412      0.07112916    -0.90729315    -0.0045815212 
    680000   0.055806192   -1.0661528      0.071776988   -0.91067734    -0.013716989  
    681000   0.056325635   -1.0651501      0.070318285   -0.91035422    -0.0098564447 
    682000   0.055830503   -1.0606018      0.070251101   -0.90661576    -0.0117366    
    683000   0.055079725   -1.0556689      0.071461066   -0.90159886     0.0058002065 
    684000   0.05633187    -1.0659972      0.071008074   -0.91050222    -0.011775133  
    685000   0.056574625   -1.0606282      0.072237128   -0.90354011     0.0029887661 
    686000   0.055995141   -1.0651754      0.071593735   -0.90959976     0.0043737981 
    687000   0.056786801   -1.0640163      0.07170096    -0.90714614    -0.0074144467 
    688000   0.055980351   -1.064848       0.072892529   -0.90799578     0.020187327  
    689000   0.056045406   -1.0619111      0.072662222   -0.90519157    -0.014503154  
    690000   0.057119833   -1.0661773      0.071457569   -0.90905109     0.0075994948 
    691000   0.056329534   -1.063855       0.073389972   -0.90598165    -0.008644214  
    692000   0.056213378   -1.0575803      0.072071669   -0.90119948    -0.0047860623 
    693000   0.056075975   -1.0597093      0.073214429   -0.90239175    -0.0013057309 
    694000   0.056395027   -1.0570844      0.073060013   -0.89944273    -0.0090763256 
    695000   0.057283025   -1.0706135      0.074059896   -0.91064011     0.0034207561 
    696000   0.056437624   -1.0755081      0.073060364   -0.91780223     0.00091336728
    697000   0.056442644   -1.0688246      0.071145526   -0.91302606    -0.0044380417 
    698000   0.056041936   -1.0723233      0.07419113    -0.9140801     -0.0059077666 
    699000   0.056756986   -1.0635832      0.071182896   -0.90727582    -0.017621888  
    700000   0.055991938   -1.0702709      0.072777074   -0.91351674    -0.014011781  
    701000   0.055545365   -1.0664311      0.072571557   -0.91055226     0.0044481096 
    702000   0.055796798   -1.0615656      0.071652938   -0.90622828    -0.016506314  
    703000   0.055727725   -1.0704104      0.073353721   -0.91347592    -0.00097878105
    704000   0.055443578   -1.0741614      0.072962368   -0.91804441    -0.0018949039 
    705000   0.055903577   -1.0688269      0.07200295    -0.91297945    -0.0048144907 
    706000   0.056228125   -1.0707193      0.071736989   -0.91465103     0.0024019786 
    707000   0.057159069   -1.0754932      0.073306466   -0.91645921     0.0015009602 
    708000   0.056856816   -1.0763144      0.073335048   -0.91770517    -0.009558025  
    709000   0.056337079   -1.0874442      0.075220798   -0.92772869     0.0018306744 
    710000   0.056553492   -1.0613836      0.073306791   -0.90325756     0.0033392463 
    711000   0.056295325   -1.0658879      0.074895244   -0.9065606      0.012805972  
    712000   0.056886152   -1.0641169      0.074896905   -0.90390181    -0.0023807897 
    713000   0.057107621   -1.0785516      0.073573669   -0.9193276     -0.017596544  
    714000   0.055739204   -1.0652529      0.072340346   -0.90931458    -0.0095438111 
    715000   0.05651115    -1.0711973      0.070947851   -0.9154937     -0.0038282373 
    716000   0.055639966   -1.0718944      0.069829661   -0.91861554    -0.0097364518 
    717000   0.055651881   -1.0791219      0.070841527   -0.92481333    -0.011745823  
    718000   0.056310123   -1.0717171      0.070465466   -0.91679731    -0.017480186  
    719000   0.056254227   -1.0758501      0.071813455   -0.9196662     -0.002153446  
    720000   0.056568957   -1.0803663      0.070257896   -0.92526588    -0.015081941  
    721000   0.056556454   -1.0783401      0.070853846   -0.92266254    -0.0052626673 
    722000   0.055859281   -1.0742058      0.072474167   -0.91795356    -0.012894669  
    723000   0.055467269   -1.0807506      0.072125059   -0.92543539    -0.017530785  
    724000   0.057138679   -1.0738124      0.07123304    -0.91688242    -0.013896966  
    725000   0.056715684   -1.0690159      0.072716717   -0.91123668    -0.020561917  
    726000   0.056266089   -1.0789656      0.072616665   -0.92196069    -0.02557694   
    727000   0.056207559   -1.0842803      0.071282018   -0.92869782    -0.012548896  
    728000   0.055242596   -1.0777638      0.07207412    -0.9228365     -0.027679779  
    729000   0.055931835   -1.08026        0.073412963   -0.92296016    -0.005597752  
    730000   0.055768401   -1.0692152      0.073525085   -0.91204832    -0.0033729567 
    731000   0.056555023   -1.0796779      0.07240957    -0.92244676     0.0042425697 
    732000   0.056980005   -1.0861102      0.072537007   -0.92811417    -0.0083112239 
    733000   0.056300581   -1.0728253      0.073900045   -0.91448532    -0.01172256   
    734000   0.05584918    -1.0870391      0.072387772   -0.93088839    -0.017627577  
    735000   0.055566388   -1.0812526      0.072397393   -0.92551637    -0.014238496  
    736000   0.056109      -1.0777477      0.072157956   -0.92143713    -0.007344382  
    737000   0.05621766    -1.0768661      0.073484018   -0.91906647    -0.020787498  
    738000   0.056863259   -1.0810877      0.074898621   -0.92090524    -0.0064845746 
    739000   0.056495982   -1.0819546      0.073012379   -0.92420914    -0.012435158  
    740000   0.055529313   -1.0843579      0.073749822   -0.9273249     -0.0098004181 
    741000   0.056149369   -1.0839166      0.073640022   -0.92606344    -0.01059248   
    742000   0.0557634     -1.0866109      0.073682651   -0.92929396    -0.010069697  
    743000   0.055163883   -1.0831415      0.074162131   -0.92624424    -0.0052768202 
[...]
   8030000   0.064517483   -1.2714664      0.13299752    -1.0417051      0.00085533871
   8031000   0.06463007    -1.2732985      0.13400421    -1.0423617     -0.014502374  
   8032000   0.065418976   -1.2541923      0.13379565    -1.0222809     -0.0095321776 
   8033000   0.065423311   -1.2788768      0.13202885    -1.0487256     -0.0081627805 
   8034000   0.065708123   -1.2708536      0.13299394    -1.0393102      0.0084425852 
   8035000   0.063777425   -1.2497904      0.13403979    -1.0200968      0.017534067  
   8036000   0.063672961   -1.2663196      0.13171408    -1.0391084      0.00078420864
   8037000   0.06476409    -1.2581251      0.13249757    -1.028494       0.014222491  
   8038000   0.065552617   -1.2645238      0.13375118    -1.0324564     -0.021787196  
   8039000   0.065255602   -1.2693857      0.13199207    -1.0395228     -0.005750032  
   8040000   0.064692936   -1.269907       0.13252523    -1.0403549      0.005531204  
   8041000   0.065350026   -1.269928       0.13212404    -1.0397916     -0.00665542   
   8042000   0.066000103   -1.2755669      0.13342622    -1.0431533      0.0091477141 
   8043000   0.066214818   -1.2668326      0.13255463    -1.0349685     -0.0056995888 
   8044000   0.063842971   -1.2763247      0.13376973    -1.0468029      0.015853386  
   8045000   0.065579258   -1.2683674      0.13246767    -1.0375436      0.003375813  
   8046000   0.065737669   -1.2606157      0.1327671     -1.0292548      0.015404795  
   8047000   0.064424514   -1.266341       0.13313388    -1.0365828      0.01884482   
   8048000   0.064459438   -1.2722489      0.13342242    -1.0421498     -0.017705443  
   8049000   0.064385192   -1.258523       0.13482677    -1.0271309      0.02196845   
   8050000   0.064493821   -1.2796389      0.13272856    -1.0501821      0.0050746705 
   8051000   0.064411526   -1.2708881      0.13357212    -1.0407111     -0.0062887808 
   8052000   0.065373446   -1.245198       0.13316555    -1.0139849      0.021455672  
   8053000   0.064751891   -1.2691048      0.13494492    -1.0370445      0.021581884  
   8054000   0.064726941   -1.2657246      0.13195465    -1.036692       0.0049422041 
   8055000   0.065377653   -1.2595804      0.13145856    -1.030068      -0.012298333  
   8056000   0.064647235   -1.2619187      0.13401694    -1.0309434      0.0040079455 
   8057000   0.065535245   -1.2805891      0.13333209    -1.0489668     -0.0044202951 
   8058000   0.064561213   -1.269922       0.13264639    -1.0404463     -0.0098057009 
   8059000   0.063605594   -1.2578852      0.1324721     -1.0300171      0.014035261  
   8060000   0.064622579   -1.2910326      0.13516745    -1.0589438      0.0048201218 
   8061000   0.06545037    -1.2631462      0.13300196    -1.0319813     -0.0090465194 
   8062000   0.065314959   -1.2691803      0.13220298    -1.0390175      0.016213912  
   8063000   0.065783841   -1.2520858      0.13260465    -1.0208181      0.0052573962 
   8064000   0.064504116   -1.2600756      0.13334694    -1.029985      -0.009032152  
   8065000   0.065375031   -1.2566633      0.13401338    -1.0246         0.027457518  
   8066000   0.06413456    -1.2705018      0.1357503     -1.0385621     -0.00029486293
   8067000   0.064678937   -1.2826877      0.13465638    -1.0510255     -0.00036788494
   8068000   0.066704643   -1.271763       0.13435781    -1.0373612     -0.0087226004 
   8069000   0.06646721    -1.253872       0.13248691    -1.0216972      0.0091010588 
   8070000   0.065407444   -1.2672748      0.13410378    -1.0350725      0.0090913909 
   8071000   0.065844396   -1.2715628      0.13261853    -1.0401904      0.0093500455 
   8072000   0.065826659   -1.268397       0.13288321    -1.0367866      0.012475493  
   8073000   0.064830658   -1.2685503      0.13333415    -1.0379827      0.003658556  
   8074000   0.065087087   -1.2602962      0.13315258    -1.0295256     -0.0063208771 
   8075000   0.064414443   -1.2419784      0.13029803    -1.0150712     -0.00049606945
   8076000   0.064444656   -1.2742061      0.13499986    -1.0425517      0.0025843549 
   8077000   0.064085797   -1.259873       0.13341123    -1.0303455     -0.0043067438 
   8078000   0.065021651   -1.2593063      0.13366512    -1.0281212     -0.0011350288 
   8079000   0.065269013   -1.2690595      0.13314968    -1.0380189      0.0054086734 
   8080000   0.065454735   -1.2777635      0.13516253    -1.0444315      0.0044366904 
   8081000   0.06525617    -1.2771448      0.13401839    -1.0452548     -0.0032768268 
   8082000   0.065822727   -1.2704511      0.13402788    -1.0377018     -0.0086175987 
   8083000   0.064985855   -1.2746639      0.134604      -1.0425937      0.0027939046 
   8084000   0.064694999   -1.2774052      0.13234099    -1.0480342     -0.0011918871 
   8085000   0.064659446   -1.2572946      0.13365964    -1.0266583      0.0014149998 
   8086000   0.064512204   -1.2727631      0.13442657    -1.0415807      0.012868088  
   8087000   0.064637644   -1.2613695      0.13374409    -1.0306815      0.024778521  
   8088000   0.064739738   -1.2742916      0.13277591    -1.0444186      0.0087653793 
   8089000   0.067033309   -1.2706684      0.1353659     -1.0347655     -0.0036328196 
   8090000   0.066572704   -1.2814679      0.13447922    -1.0471425     -0.0016297862 
   8091000   0.065817192   -1.2648046      0.13487303    -1.0312185     -0.0044122796 
   8092000   0.065357353   -1.2803657      0.13564399    -1.0466984      0.0091981158 
   8093000   0.065504585   -1.2546629      0.1338974     -1.0225213      0.012008539  
   8094000   0.065919416   -1.2625955      0.13524145    -1.0284877     -0.0068324424 
   8095000   0.06691845    -1.2566286      0.13371079    -1.0225531      0.0020740608 
   8096000   0.065577069   -1.268097       0.13465233    -1.0350918      0.00438878   
   8097000   0.065906889   -1.264876       0.13513268    -1.0308958      0.030953162  
   8098000   0.064833873   -1.2705632      0.13467992    -1.038645       0.017475133  
   8099000   0.064736966   -1.2675264      0.13553303    -1.0349004      0.0011849673 
   8100000   0.065305304   -1.2617814      0.13441468    -1.0294214      0.0023126657 
   8101000   0.065956346   -1.2520633      0.13639893    -1.0167426     -0.0034806917 
   8102000   0.064565723   -1.257777       0.13502931    -1.0259116      0.02711838   
   8103000   0.065084251   -1.2643401      0.13132618    -1.0354002     -0.01429813   
   8104000   0.064103053   -1.259346       0.1340513     -1.0291525     -0.020965532  
   8105000   0.065204533   -1.2668776      0.13456521    -1.0345182     -0.016620918  
   8106000   0.065451897   -1.2538951      0.13472326    -1.0210066     -0.0012572922 
   8107000   0.066114228   -1.26019        0.13520229    -1.0258291      0.015227067  
   8108000   0.066228716   -1.2617657      0.13475937    -1.0276761      0.012175328  
   8109000   0.06624835    -1.2591906      0.1353456     -1.0244853     -0.0086673367 
   8110000   0.06515413    -1.2643459      0.13464214    -1.0319852      0.024556613  
   8111000   0.06501604    -1.2786967      0.13596981    -1.0452155      0.0045626633 
   8112000   0.066260033   -1.2575829      0.13768048    -1.0205252      0.01710471   
   8113000   0.064914966   -1.2576764      0.13619787    -1.0241186      0.0016891985 
   8114000   0.065637586   -1.2539243      0.13646074    -1.0190199      0.0056888275 
   8115000   0.065039342   -1.2621422      0.1362872     -1.0283085     -0.014716057  
   8116000   0.064288291   -1.2694531      0.13464589    -1.0383872      0.0071769172 
   8117000   0.064704732   -1.2709541      0.13436337    -1.0395462     -0.0035603549 
   8118000   0.064569701   -1.2675322      0.13460356    -1.0360866      0.014911717  
   8119000   0.065725954   -1.2682625      0.13434735    -1.0353389     -0.0026887096 
   8120000   0.065145825   -1.2698731      0.13790918    -1.0342578      0.0053502514 
   8121000   0.0646759     -1.2684574      0.13730776    -1.0341483      0.012909396  
   8122000   0.065195355   -1.2689578      0.13541771    -1.0357597      0.0030766738 
   8123000   0.065855336   -1.2773977      0.13495252    -1.0436749     -0.012175869  
   8124000   0.065997001   -1.2652066      0.13420536    -1.0320186     -0.00070796731
   8125000   0.065113608   -1.2767124      0.13535794    -1.0436966      0.0034333781 
   8126000   0.065040494   -1.2589235      0.13338305    -1.0279923      0.0052988134 
   8127000   0.063843908   -1.260809       0.13578455    -1.0292709     -0.0052355029 
   8128000   0.064468944   -1.272353       0.13547233    -1.0401897     -0.012291938  
   8129000   0.064244086   -1.2676727      0.13405176    -1.0372673     -0.0063259232 
   8130000   0.065346653   -1.2619712      0.13392644    -1.0300375     -0.010048735  
   8131000   0.065119699   -1.2683667      0.13318912    -1.0375106     -0.00093861774
   8132000   0.065354307   -1.2639263      0.13476223    -1.0311453      0.004959508  
   8133000   0.064620534   -1.2864766      0.134476      -1.0550823      0.002224352  
   8134000   0.065024628   -1.2642731      0.13593485    -1.0308138      0.0082560658 
   8135000   0.064280901   -1.2503728      0.13397934    -1.0199845     -0.0038978993 
   8136000   0.0643269     -1.2665647      0.13240687    -1.0376799      0.0086732318 
   8137000   0.064270394   -1.2511209      0.13443091    -1.0202968      0.010554932  
   8138000   0.064259537   -1.2622853      0.13282301    -1.0330854      0.015562228  
   8139000   0.064417654   -1.2631064      0.13476483    -1.0317276      0.0021787177 
   8140000   0.064051151   -1.2660095      0.13415345    -1.0357917      0.0032374696 
   8141000   0.063897358   -1.2770784      0.13541035    -1.0458344      0.0024931403 
   8142000   0.064603682   -1.2725726      0.13498718    -1.0406924      0.0011660679 
   8143000   0.064106126   -1.2714549      0.13489342    -1.0404147      0.0054359248 
   8144000   0.064812342   -1.2669901      0.1367533     -1.0330309     -0.0047201619 
   8145000   0.066037251   -1.2641382      0.13380105    -1.031294      -0.0082264641 
   8146000   0.06612624    -1.2626939      0.13342275    -1.0300946     -0.010204046  
   8147000   0.064944386   -1.2592732      0.13250975    -1.0293595      0.017466127  
   8148000   0.064908852   -1.2655106      0.13430966    -1.0338503     -0.0083468836 
   8149000   0.064102897   -1.2733874      0.13406762    -1.0431779     -0.008381583  
   8150000   0.065631612   -1.2587271      0.1358556     -1.0244368      0.0020523516 
   8151000   0.065719489   -1.267247       0.13405501    -1.0346255     -0.0082037179 
   8152000   0.064478386   -1.2569892      0.13449052    -1.0257936     -0.005766299  
   8153000   0.06452232    -1.2701591      0.13351471    -1.0398734      0.002938273  
   8154000   0.06515896    -1.2671585      0.13483096    -1.0346017     -0.0036225728 
   8155000   0.064932069   -1.2629786      0.13581803    -1.0297751      0.001380267  
   8156000   0.065548958   -1.2743595      0.13427483    -1.0417739      0.0025396819 
   8157000   0.065162277   -1.2796035      0.13636045    -1.0455123      0.021928324  
   8158000   0.064551103   -1.2724456      0.13452509    -1.0411064     -0.0035664492 
   8159000   0.065418712   -1.2726681      0.1337542     -1.0407985     -0.0045024985 
   8160000   0.065644051   -1.2685541      0.13544189    -1.0346588     -0.014191867  
   8161000   0.064538572   -1.2609426      0.13427618    -1.0298711     -0.0082051348 
   8162000   0.065222511   -1.2558367      0.13286938    -1.0251462      0.02099244   
   8163000   0.065213799   -1.278285       0.13351389    -1.046963       0.0063700771 
   8164000   0.065361796   -1.2742563      0.1351576     -1.0410687     -0.00897738   
   8165000   0.064404847   -1.2596408      0.13491979    -1.0281262      0.0088701484 
   8166000   0.067048427   -1.2760443      0.13481447    -1.0406702      0.021836294  
   8167000   0.066650102   -1.2612778      0.13565348    -1.0256621     -0.0073450169 
   8168000   0.06665171    -1.258783       0.13644995    -1.0223684      0.0086334408 
   8169000   0.066374136   -1.255599       0.1370877     -1.0189629     -0.0069401854 
   8170000   0.066325519   -1.274994       0.13555437    -1.0399641      0.0051543952 
   8171000   0.065053957   -1.2791811      0.13462685    -1.0469859     -0.004912405  
   8172000   0.065742859   -1.2622082      0.13398446    -1.0296222      0.02484032   
   8173000   0.066121241   -1.2658292      0.13580934    -1.0308508      0.014616412  
   8174000   0.065087965   -1.2625527      0.13655232    -1.0283811     -0.014120538  
   8175000   0.065828977   -1.261118       0.13543404    -1.0269532      0.0087971459 
   8176000   0.065107801   -1.2572222      0.13686234    -1.0227108     -0.0043623054 
   8177000   0.065679712   -1.2671445      0.13629319    -1.0323445     -0.0037963284 
   8178000   0.065308359   -1.253085       0.13326637    -1.0218687      0.010902397  
   8179000   0.065687971   -1.249536       0.13690377    -1.014113      -0.007580411  
   8180000   0.065755913   -1.273558       0.13566028    -1.0392766      0.0022321392 
   8181000   0.065105796   -1.266245       0.13515945    -1.0334394      0.0056328544 
   8182000   0.065734021   -1.261825       0.13567076    -1.027566       0.012569728  
   8183000   0.065193855   -1.2683732      0.13674171    -1.0338533     -0.0057819069 
   8184000   0.064777797   -1.2710111      0.13614265    -1.0377143      0.0076742083 
   8185000   0.066520024   -1.278677       0.13428372    -1.0446261      0.0090656906 
   8186000   0.065363891   -1.2542414      0.13399573    -1.0222125      0.012446707  
   8187000   0.065183702   -1.2582045      0.13655077    -1.0238908     -0.0076194362 
   8188000   0.06510157    -1.259594       0.13768051    -1.0242737      0.0097229194 
   8189000   0.065142397   -1.2496988      0.13338893    -1.0186089     -0.0071095803 
   8190000   0.065641689   -1.266537       0.13501379    -1.0330734      0.018747642  
   8191000   0.065201278   -1.27649        0.13601295    -1.0426878      0.0057827488 
   8192000   0.065808868   -1.2623811      0.13490559    -1.0287749      0.011993492  
   8193000   0.065303829   -1.2701057      0.13543711    -1.0367255      0.011657696  
   8194000   0.065780789   -1.2727532      0.13464415    -1.0394506      0.0074519478 
   8195000   0.065797406   -1.2682276      0.13666946    -1.0328748      0.0013720518 
   8196000   0.065216185   -1.2573989      0.13616248    -1.0234248     -0.007516348  
   8197000   0.065491457   -1.2695479      0.13685787    -1.0344655      0.0019841402 
   8198000   0.064921398   -1.2675625      0.13672935    -1.0334636      0.001756682  
   8199000   0.065635338   -1.2429447      0.13470448    -1.0098         0.012792684  
   8200000   0.066529248   -1.2713354      0.13637456    -1.0351798     -0.0025134586 
   8201000   0.064652917   -1.2526136      0.13436837    -1.0212784     -0.0011386113 
   8202000   0.065237402   -1.2644071      0.13376364    -1.0327999      0.010839148  
   8203000   0.066054754   -1.2744039      0.13579299    -1.0395416      0.0054262573 
   8204000   0.065101834   -1.2736706      0.13488711    -1.0411433      0.0038330385 
   8205000   0.065130272   -1.2582237      0.1358901     -1.0246508      0.0044703473 
   8206000   0.066184089   -1.2735417      0.13430952    -1.0399688      0.019535799  
   8207000   0.066254313   -1.2719024      0.13354753    -1.0389862      0.014827024  
   8208000   0.065757227   -1.2816302      0.13530506    -1.0477021      0.0084764195 
   8209000   0.066226745   -1.2571087      0.13362759    -1.0241538     -0.0038029047 
   8210000   0.064567584   -1.2549961      0.13464987    -1.0235073     -0.0079088748 
   8211000   0.066334921   -1.2555852      0.13515536    -1.0209403     -0.0075521706 
   8212000   0.064429424   -1.2665193      0.13547359    -1.0344141      0.0031543581 
   8213000   0.065775793   -1.2699685      0.13478966    -1.0365279     -0.0016285643 
   8214000   0.065287971   -1.2789184      0.13713133    -1.0438678      0.012402022  
   8215000   0.06525791    -1.2643755      0.13419175    -1.0323096      0.018224279  
   8216000   0.064499819   -1.271276       0.13506149    -1.0394773      4.5547886e-05
   8217000   0.064701441   -1.2732282      0.13479026    -1.0413983     -0.0023421319 
   8218000   0.064536458   -1.2537314      0.13459051    -1.0223487      0.010089553  
   8219000   0.065238452   -1.2629573      0.13829765    -1.0268146      0.00081812591
   8220000   0.065840186   -1.2708812      0.13538186    -1.0367518      0.011437541  
   8221000   0.064658242   -1.263882       0.1348417     -1.0320655      0.010933622  
   8222000   0.065391113   -1.2575947      0.13521091    -1.0243098     -0.0013245548 
   8223000   0.064677553   -1.2711161      0.13580337    -1.0383089      0.0034413504 
   8224000   0.065013544   -1.2805656      0.1363957     -1.0466622     -0.013406026  
   8225000   0.065811512   -1.2766837      0.13502598    -1.0429532      0.017488876  
   8226000   0.064372677   -1.2657886      0.13540304    -1.033839      -0.0025827448 
   8227000   0.064975167   -1.2647287      0.13572963    -1.0315489      0.0065539634 
   8228000   0.064497795   -1.2679543      0.13630913    -1.034911      -0.0050534039 
   8229000   0.065793465   -1.2651646      0.1353288     -1.0311583      0.0047664871 
   8230000   0.06472019    -1.2805844      0.13515203    -1.0483646     -0.0092740179 
   8231000   0.065440913   -1.2552333      0.13712889    -1.0199557      0.006981536  
   8232000   0.065456104   -1.2856354      0.13632146    -1.0511424      0.014719398  
   8233000   0.064393639   -1.26803        0.13595771    -1.0354943      0.020091669  
   8234000   0.065045779   -1.2740099      0.13577046    -1.0406834      0.010014653  
   8235000   0.066173295   -1.274416       0.13498032    -1.0401885      0.0035585761 
   8236000   0.065618585   -1.2670271      0.13562186    -1.0329901     -0.0021227891 
   8237000   0.065444246   -1.262181       0.13523345    -1.0287938      0.0081091377 
   8238000   0.065502869   -1.2691366      0.13481132    -1.0360837     -0.0025948086 
   8239000   0.065417891   -1.2642068      0.13671547    -1.0293772      0.010877024  
   8240000   0.065341383   -1.2553149      0.13610648    -1.021209      -0.011793446  
   8241000   0.066401333   -1.2675051      0.1376464     -1.0302696     -0.01760944   
   8242000   0.065761051   -1.2733699      0.13696705    -1.037774      -0.018518133  
   8243000   0.066179067   -1.2791333      0.13552864    -1.0443489     -0.00068448388
   8244000   0.065617917   -1.291987       0.13571435    -1.0578584     -0.012870513  
   8245000   0.065873105   -1.2646841      0.13417216    -1.0317151      0.010495463  
   8246000   0.064561598   -1.2681742      0.13492385    -1.0364204     -0.0022138074 
   8247000   0.065701933   -1.2759001      0.13674365    -1.0406163      0.0044604209 
   8248000   0.064973727   -1.2583625      0.13491448    -1.026          0.012563605  
   8249000   0.065133334   -1.259668       0.13489703    -1.0270836     -0.010820272  
   8250000   0.065052535   -1.2765991      0.13761587    -1.041417       0.0037985431 
   8251000   0.065399523   -1.2717588      0.13428399    -1.0393882      0.015041182  
   8252000   0.065120996   -1.2551857      0.13557517    -1.0219417     -0.0007498717 
   8253000   0.064925468   -1.2690254      0.13865837    -1.0329914     -0.0075951498 
   8254000   0.066335828   -1.2722271      0.13452642    -1.0382097     -0.0080258384 
   8255000   0.064571521   -1.274564       0.13595104    -1.0417682     -0.004625966  
   8256000   0.064758657   -1.2633856      0.13709818    -1.029162      -0.0022380535 
   8257000   0.065959865   -1.2658795      0.1363864     -1.0305661     -0.017234826  
   8258000   0.065810614   -1.2663889      0.1357508     -1.0319349      0.010920056  
   8259000   0.064067248   -1.261193