LAMMPS (22 Jul 2025)
OMP_NUM_THREADS environment is not set. Defaulting to 1 thread.
  using 1 OpenMP thread(s) per MPI task
package omp 0
using multi-threaded neighbor list subroutines
# Input Script of lammps for assembly simulation of polimeric network.
# Main code is based on: https://github.com/PipeB62/Hydrogel-Simulation
# Patchy particles are with bond style.

# Felipe Benavides modified by Fco. Vazquez

# Initialization
units lj
dimension 3
boundary p p p

# Styles of atoms and that stuff
atom_style full
bond_style harmonic
angle_style harmonic
pair_style hybrid/overlay zero 0.0 lj/cut/omp 1.12 table/omp linear 5000000 threebody/table

newton on

# Create simulaiton box
region simulation_box block -$L $L -$L $L -$L $L
region simulation_box block -9.796741 $L -$L $L -$L $L
region simulation_box block -9.796741 9.796741 -$L $L -$L $L
region simulation_box block -9.796741 9.796741 -9.796741 $L -$L $L
region simulation_box block -9.796741 9.796741 -9.796741 9.796741 -$L $L
region simulation_box block -9.796741 9.796741 -9.796741 9.796741 -9.796741 $L
region simulation_box block -9.796741 9.796741 -9.796741 9.796741 -9.796741 9.796741
# N-atom-types region-ID keyword value Is necesesary the extra/special/per/atom (# of special neighbors per atom)
create_box 4 simulation_box     bond/types 1     angle/types 2     extra/bond/per/atom 10     extra/angle/per/atom 6     extra/special/per/atom 10
Created orthogonal box = (-9.796741 -9.796741 -9.796741) to (9.796741 9.796741 9.796741)
  2 by 2 by 2 MPI processor grid

# Atom types
mass 1 1.0      # CL
mass 2 1.0      # MO
mass 3 1.0      # PA
mass 4 1.0      # PB

# Coefficients
include potential.in
# Script with the pair-wise interaction and bonds between particles

bond_coeff 1 100.0 0.45
angle_coeff 1 100.0 180
angle_coeff 2 100.0 109.4712
pair_coeff 1 3 zero 0.5
pair_coeff 1 4 zero 0.5
pair_coeff 2 3 zero 0.5
pair_coeff 2 4 zero 0.5
pair_coeff 3 3 zero 0.5
pair_coeff 1 1 lj/cut/omp 1.0 1.0 1.12
pair_coeff 2 2 lj/cut/omp 1.0 1.0 1.12
pair_coeff 1 2 lj/cut/omp 1.0 1.0 1.12
pair_coeff 3 4 table/omp sysFiles/pachTab.table POT 0.6 # sw/omp sysFiles/patchyPot.sw NULL NULL PA PB
Reading pair table potential file sysFiles/pachTab.table with DATE: 2024-07-08
WARNING: 7 of 1000000 force values in table POT are inconsistent with -dE/dr.
WARNING:  Should only be flagged at inflection points (src/pair_table.cpp:469)
pair_coeff 4 4 table/omp sysFiles/pachTab.table POT 0.6 # sw/omp sysFiles/patchyPot.sw NULL NULL PA PB
Reading pair table potential file sysFiles/pachTab.table with DATE: 2024-07-08
WARNING: 7 of 1000000 force values in table POT are inconsistent with -dE/dr.
WARNING:  Should only be flagged at inflection points (src/pair_table.cpp:469)
pair_coeff * * threebody/table swapMech.3b NULL NULL PA PB
pair_modify pair lj/cut/omp shift yes


# Molecules
include molecules.in
# Script with all molecule information and create groups for computes

# Read the molecule information
molecule CL sysFiles/molecule.patchy.CL
Read molecule template CL:
# Patchy Cross-Linker
  1 molecules
  0 fragments
  0 bodies
  5 atoms with max type 3
  4 bonds with max type 1
  6 angles with max type 2
  0 dihedrals with max type 0
  0 impropers with max type 0
molecule MO sysFiles/molecule.patchy.MO
Read molecule template MO:
# Patchy Monomer
  1 molecules
  0 fragments
  0 bodies
  3 atoms with max type 4
  2 bonds with max type 1
  1 angles with max type 1
  0 dihedrals with max type 0
  0 impropers with max type 0

# Introduce the molecules
# ID style args keyword arg
region spawn_box block -$L $L -$L $L -$L $L
region spawn_box block -9.796741 $L -$L $L -$L $L
region spawn_box block -9.796741 9.796741 -$L $L -$L $L
region spawn_box block -9.796741 9.796741 -9.796741 $L -$L $L
region spawn_box block -9.796741 9.796741 -9.796741 9.796741 -$L $L
region spawn_box block -9.796741 9.796741 -9.796741 9.796741 -9.796741 $L
region spawn_box block -9.796741 9.796741 -9.796741 9.796741 -9.796741 9.796741

# create_atoms type style args keyword values
# style_random: N seed region-ID
# keyword_mol: template-ID seed
# keyword_overlap: overlap value = only insert if at least this distance from all existing atoms
# keyword_maxtry: maxtry value = number of attempts to insert a particle before failure
create_atoms 0 random ${NCL} ${seed1} spawn_box mol CL ${seed1} overlap 1.0 maxtry 5000 #xls
create_atoms 0 random 25 ${seed1} spawn_box mol CL ${seed1} overlap 1.0 maxtry 5000 
create_atoms 0 random 25 3234 spawn_box mol CL ${seed1} overlap 1.0 maxtry 5000 
create_atoms 0 random 25 3234 spawn_box mol CL 3234 overlap 1.0 maxtry 5000 
Created 125 atoms
  using lattice units in orthogonal box = (-9.796741 -9.796741 -9.796741) to (9.796741 9.796741 9.796741)
  create_atoms CPU = 0.009 seconds
create_atoms 0 random ${NMO} ${seed2} spawn_box mol MO ${seed2} overlap 1.0 maxtry 5000 #mon
create_atoms 0 random 475 ${seed2} spawn_box mol MO ${seed2} overlap 1.0 maxtry 5000 
create_atoms 0 random 475 6321 spawn_box mol MO ${seed2} overlap 1.0 maxtry 5000 
create_atoms 0 random 475 6321 spawn_box mol MO 6321 overlap 1.0 maxtry 5000 
Created 1425 atoms
  using lattice units in orthogonal box = (-9.796741 -9.796741 -9.796741) to (9.796741 9.796741 9.796741)
  create_atoms CPU = 0.007 seconds

# Create patchy particles
group CrossLinker type 1 3
125 atoms in group CrossLinker
group Monomer type 2 4
1425 atoms in group Monomer
group Patches type 3 4
1050 atoms in group Patches
group CL type 1
25 atoms in group CL
group MO type 2
475 atoms in group MO
group PA type 3
100 atoms in group PA
group PB type 4
950 atoms in group PB
group CM type 1 2
500 atoms in group CM

# Neighbor list
neighbor 1.8 bin # extra-distance style
#neigh_modify delay 0 every 1 check no
#neigh_modify exclude molecule/intra CrossLinker
#neigh_modify exclude molecule/intra Monomer

# COMPUTES

# Compute global kinetic and potential energy and temperature
compute t all temp
compute p all pressure t
compute ep all pe
compute ek all ke
variable eT equal etotal
variable eB equal ebond
variable eA equal eangle
variable eM equal emol
variable ec equal ecouple
variable eC equal econserve

# Potencial energy per pair-wise interaction
compute wcaPair all pair lj/cut/omp epair
compute patchPair all pair table/omp epair
compute swapPair all pair threebody/table epair

# Compute the pressure
compute press all pressure t ke virial
compute pressVirial all pressure t virial
compute pressVirialMod all pressure t pair bond angle

# Computes for the stress
compute cstress all stress/atom t ke pair bond angle
compute cstressVirial all stress/atom t virial
compute cstressVirialMod all stress/atom t pair bond angle
compute stress all reduce sum c_cstress[*]
compute stressVirial all reduce sum c_cstressVirial[*]
compute stressVirialMod all reduce sum c_cstressVirialMod[*]

# Displacement of the central particles
compute disp CM displace/atom
compute redDisp CM reduce ave c_disp[*] # All, because yes

# Get the number of central particles per cluster
compute clusters all aggregate/atom 0.6                             # Create the clusters
compute Nclpart CM chunk/atom c_clusters compress yes discard yes   # Get the number of clusters
compute clsize CM property/chunk Nclpart count                      # Counts the atoms in each chunk
compute idcl CM property/chunk Nclpart id                           # Get the ids of the clusters

# DUMPS and FIXES

thermo ${NsaveStress}
thermo 1000

# Save global energies and temperature
fix Energy all ave/time 1 ${Nsave} ${Nsave} c_t c_wcaPair c_patchPair c_swapPair c_ep c_ek v_eT v_ec v_eC c_p v_eB v_eA v_eM c_redDisp[*] file ${Dir}/${file1_name}
fix Energy all ave/time 1 1000 ${Nsave} c_t c_wcaPair c_patchPair c_swapPair c_ep c_ek v_eT v_ec v_eC c_p v_eB v_eA v_eM c_redDisp[*] file ${Dir}/${file1_name}
fix Energy all ave/time 1 1000 1000 c_t c_wcaPair c_patchPair c_swapPair c_ep c_ek v_eT v_ec v_eC c_p v_eB v_eA v_eM c_redDisp[*] file ${Dir}/${file1_name}
fix Energy all ave/time 1 1000 1000 c_t c_wcaPair c_patchPair c_swapPair c_ep c_ek v_eT v_ec v_eC c_p v_eB v_eA v_eM c_redDisp[*] file /home/franvt/GitRepos/molDynLammps/polymericGels/gel-bonds-1/data/0.050.30.05500-2026-01-27-162300/${file1_name}
fix Energy all ave/time 1 1000 1000 c_t c_wcaPair c_patchPair c_swapPair c_ep c_ek v_eT v_ec v_eC c_p v_eB v_eA v_eM c_redDisp[*] file /home/franvt/GitRepos/molDynLammps/polymericGels/gel-bonds-1/data/0.050.30.05500-2026-01-27-162300/system_assembly.fixf

# Save Pressure and Stress tensor
fix fixStress5 all ave/time 1 ${NsaveStress} ${NsaveStress} c_p c_press[*] c_pressVirial[*] c_pressVirialMod[*] c_stress[*] c_stressVirial[*] c_stressVirialMod[*] file ${Dir}/${file2_name}
fix fixStress5 all ave/time 1 1000 ${NsaveStress} c_p c_press[*] c_pressVirial[*] c_pressVirialMod[*] c_stress[*] c_stressVirial[*] c_stressVirialMod[*] file ${Dir}/${file2_name}
fix fixStress5 all ave/time 1 1000 1000 c_p c_press[*] c_pressVirial[*] c_pressVirialMod[*] c_stress[*] c_stressVirial[*] c_stressVirialMod[*] file ${Dir}/${file2_name}
fix fixStress5 all ave/time 1 1000 1000 c_p c_press[*] c_pressVirial[*] c_pressVirialMod[*] c_stress[*] c_stressVirial[*] c_stressVirialMod[*] file /home/franvt/GitRepos/molDynLammps/polymericGels/gel-bonds-1/data/0.050.30.05500-2026-01-27-162300/${file2_name}
fix fixStress5 all ave/time 1 1000 1000 c_p c_press[*] c_pressVirial[*] c_pressVirialMod[*] c_stress[*] c_stressVirial[*] c_stressVirialMod[*] file /home/franvt/GitRepos/molDynLammps/polymericGels/gel-bonds-1/data/0.050.30.05500-2026-01-27-162300/stress_assembly.fixf

# Save the global cluster information
fix 1 CM ave/time 1 1 ${Ndump} c_idcl c_clsize file ${Dir}/${file3_name} mode vector
fix 1 CM ave/time 1 1 1000 c_idcl c_clsize file ${Dir}/${file3_name} mode vector
fix 1 CM ave/time 1 1 1000 c_idcl c_clsize file /home/franvt/GitRepos/molDynLammps/polymericGels/gel-bonds-1/data/0.050.30.05500-2026-01-27-162300/${file3_name} mode vector
fix 1 CM ave/time 1 1 1000 c_idcl c_clsize file /home/franvt/GitRepos/molDynLammps/polymericGels/gel-bonds-1/data/0.050.30.05500-2026-01-27-162300/clust_assembly.fixf mode vector

# Save atom positions with cluster id
dump dumpID all custom ${Ndump} ${Dir}/traj/${file5_name} id mol c_clusters type x y z vx vy vz
dump dumpID all custom 1000 ${Dir}/traj/${file5_name} id mol c_clusters type x y z vx vy vz
dump dumpID all custom 1000 /home/franvt/GitRepos/molDynLammps/polymericGels/gel-bonds-1/data/0.050.30.05500-2026-01-27-162300/traj/${file5_name} id mol c_clusters type x y z vx vy vz
dump dumpID all custom 1000 /home/franvt/GitRepos/molDynLammps/polymericGels/gel-bonds-1/data/0.050.30.05500-2026-01-27-162300/traj/traj_assembly.*.dumpf id mol c_clusters type x y z vx vy vz
dump_modify dumpID pbc yes # remap atoms via periodic boundary conditions

# RUN SIMULATION

# Brownian Dynamics using Langevin Thermostat

timestep ${tstep}
timestep 0.001

fix VelVerlet all nve # Use Velocity Verlet integrator

# First elevate the temperature
fix ThermoLng all langevin 0.0 ${temp} ${damp} ${seed3} tally yes zero yes # Brownian Dynamics: langevin + nve
fix ThermoLng all langevin 0.0 0.05 ${damp} ${seed3} tally yes zero yes 
fix ThermoLng all langevin 0.0 0.05 1 ${seed3} tally yes zero yes 
fix ThermoLng all langevin 0.0 0.05 1 2010 tally yes zero yes 
run ${stepsheat}
run 500000
WARNING: Using a manybody potential with bonds/angles/dihedrals and special_bond exclusions (src/pair.cpp:250)
Hybrid pair style last /omp style table/omp
Last active /omp style is angle_style harmonic/omp
Neighbor list info ...
  update: every = 1 steps, delay = 0 steps, check = yes
  max neighbors/atom: 2000, page size: 100000
  master list distance cutoff = 2.92
  ghost atom cutoff = 2.92
  binsize = 1.46, bins = 14 14 14
  7 neighbor lists, perpetual/occasional/extra = 6 1 0
  (1) pair zero, perpetual, skip from (7)
      attributes: half, newton on, omp
      pair build: skip/omp
      stencil: none
      bin: none
  (2) pair lj/cut/omp, perpetual, skip from (7)
      attributes: half, newton on, omp
      pair build: skip/omp
      stencil: none
      bin: none
  (3) pair table/omp, perpetual, skip from (7)
      attributes: half, newton on, omp
      pair build: skip/omp
      stencil: none
      bin: none
  (4) pair threebody/table, perpetual, skip from (6)
      attributes: full, newton on, omp
      pair build: skip/omp
      stencil: none
      bin: none
  (5) compute aggregate/atom, occasional, copy from (6)
      attributes: full, newton on, omp
      pair build: copy
      stencil: none
      bin: none
  (6) neighbor class addition, perpetual
      attributes: full, newton on, omp
      pair build: full/bin/omp
      stencil: full/bin/3d
      bin: standard
  (7) neighbor class addition, perpetual, half/full from (6)
      attributes: half, newton on, omp
      pair build: halffull/newton/omp
      stencil: none
      bin: none
Per MPI rank memory allocation (min/avg/max) = 20.03 | 20.03 | 20.03 Mbytes
   Step          Temp          E_pair         E_mol          TotEng         Press     
         0   0              0.00041490155  0.15480456     0.15521947    -0.21361809   
      1000   0.038128237    0              0.00013757075  0.057293028    0.0036255212 
      2000   0.00015524756  8.543009e-08   0.020977048    0.021209855    0.068369326  
      3000   0.0053601671   0              0.0001566732   0.0081917366   0.0024773034 
      4000   0.00032043582  0              0.0030278828   0.0035082264  -0.026562159  
      5000   0.0011098552   0              0.00027894739  0.0019426561  -0.0005261401 
      6000   0.00052871377  0              0.00073390715  0.0015264661   0.0095531329 
      7000   0.00072896697  0              0.00040823029  0.0015009753  -1.2979742e-05
      8000   0.0007251149   0              0.00053299756  0.0016199682  -0.0032626071 
      9000   0.00081771509  1.3387704e-06  0.00052435467  0.0017514747   2.4759112e-06
     10000   0.00090243713  0              0.0006006103   0.0019533927   0.0011493598 
     11000   0.0010197323   0              0.00066288448  0.0021914962  -0.00042254769
     12000   0.0011051079   0              0.00072884253  0.0023854349  -0.00024522879
     13000   0.0011985165   0              0.00078137006  0.0025779849   0.00057614678
     14000   0.0013249056   0              0.00085482435  0.0028409006   0.00081224385
     15000   0.0014112991   0              0.00096232634  0.0030779093  -0.00010780047
     16000   0.0015343975   0              0.0010154688   0.0033155802  -0.00081771796
     17000   0.0016020278   4.7441589e-08  0.0010642477   0.0034657865   0.00030980887
     18000   0.0017598133   0              0.0011497192   0.003787736    0.0012942109 
     19000   0.0018430414   0              0.0012059735   0.003968752    5.7970273e-05
     20000   0.0019080305   0              0.0012946994   0.0041548986  -0.00044607826
     21000   0.001992366    5.7799363e-07  0.0013610759   0.0043482748   0.00069963965
     22000   0.0021283243  -3.6672612e-09  0.0014649008   0.0046553239   0.00056659963
     23000   0.0025735469  -0.0015218821   0.0017283014   0.004064249    0.00012610136
     24000   0.0024444094  -0.0016039619   0.0016864538   0.0037467405  -0.00025353478
     25000   0.0024681684  -0.0016016608   0.0016795706   0.0037777739  -0.00025316254
     26000   0.0025092316  -0.001589946    0.001707866    0.0038793392   0.00073864395
     27000   0.0030589285  -0.0031177114   0.002012252    0.0034799731   0.00066127919
     28000   0.002845273   -0.0031717067   0.0020052056   0.003098655   -0.00065030665
     29000   0.0028512639  -0.0032042003   0.0019482227   0.0030181589  -0.00057429635
     30000   0.0032344357  -0.0047618896   0.0020775691   0.0021642029  -0.00033739482
     31000   0.0030894149  -0.0048363168   0.0022389438   0.0020337595  -5.3009553e-05
     32000   0.0032581607  -0.0048324545   0.0021927205   0.0022443541   0.0004081845 
     33000   0.0032215756  -0.0048326584   0.0023286392   0.0023252265   0.00081874659
     34000   0.0040031854  -0.0075381178   0.0027834668   0.0012462531  -0.00038818505
     35000   0.0034571004  -0.0077706526   0.0024728762  -0.00011547145 -0.00047436738
     36000   0.0044781808  -0.010762873    0.002879389   -0.0011705465   0.00029027022
     37000   0.0046349367  -0.012733258    0.0026719396  -0.0031133985   0.0014358727 
     38000   0.003998545   -0.012685588    0.002635141   -0.004056499    0.00085337462
     39000   0.0042627611  -0.014426017    0.0027870632  -0.0052489372  -0.00031597353
     40000   0.004134619   -0.014466278    0.0026197665  -0.0056485844  -0.0001137876 
     41000   0.0039847584  -0.014424344    0.0027835834  -0.005667479    0.0012337074 
     42000   0.0041003877  -0.014461977    0.0027443035  -0.00557106     0.00093054757
     43000   0.0046610268  -0.016092878    0.0029636582  -0.0061421907  -0.00089918803
     44000   0.0050067312  -0.017410171    0.0032844405  -0.0066204791   0.00065734213
     45000   0.004455419   -0.017661738    0.0034852371  -0.0074976837   0.00065597604
     46000   0.0051730411  -0.018875657    0.0031358034  -0.0079852986   0.0012827956 
     47000   0.0048234191  -0.020213159    0.0036651187  -0.0093175793  -0.00014686758
     48000   0.0050129943  -0.020804911    0.0032635772  -0.010026693    0.0010465819 
     49000   0.0048960789  -0.02092223     0.003432082   -0.010150768    0.00069088756
     50000   0.0049235086  -0.020936616    0.0033882007  -0.010167917    0.00079825125
     51000   0.00492648    -0.020952896    0.0034339135  -0.01013403    -9.9449397e-06
     52000   0.0049640066  -0.020935875    0.0036265379  -0.0098681306   0.0005278417 
     53000   0.0051770599  -0.020929367    0.003623604   -0.0095451832   0.00036990358
     54000   0.0052657508  -0.020944248    0.0034947157  -0.0095560024   0.00086037796
     55000   0.0060853671  -0.023751249    0.0038114575  -0.01081763    -0.0011225271 
     56000   0.0062538265  -0.025626116    0.0044453757  -0.011806053   -0.00027783503
     57000   0.0059547504  -0.025535002    0.0040988231  -0.012509816    0.00078965433
     58000   0.0058286135  -0.025713989    0.0042028718  -0.012773837    0.00087809502
     59000   0.0059676236  -0.025765081    0.004081245   -0.012738176   -0.00083566962
     60000   0.0062263966  -0.028179923    0.0047460447  -0.014100309   -0.00074142725
     61000   0.0059818772  -0.028790768    0.0043156234  -0.015508118    0.0019284784 
     62000   0.0067672005  -0.030551642    0.0044656802  -0.01594171     0.00085783845
     63000   0.0061759127  -0.030546407    0.0042984406  -0.016990074    0.00022777165
     64000   0.006368309   -0.030614988    0.0043737853  -0.016694903    0.00091681367
     65000   0.006979178   -0.03180092     0.0046508149  -0.016688092   -0.0010421423 
     66000   0.006667507   -0.033497093    0.0049865955  -0.018515689   -0.00018351472
     67000   0.0070366041  -0.035029979    0.0048388929  -0.019642989    0.001288804  
     68000   0.0066585769  -0.035294355    0.0049549037  -0.020358029    0.00035402746
     69000   0.00774469    -0.03695675     0.0046795276  -0.020667683    0.00070925206
     70000   0.0075509027  -0.04064005     0.0055705939  -0.02375041    -0.0018496157 
     71000   0.0080932312  -0.043399417    0.005499981   -0.025767421    0.0017198277 
     72000   0.0073398181  -0.043454734    0.0052650805  -0.02718703     0.0016786875 
     73000   0.0082095926  -0.045840785    0.0054637154  -0.028070625    0.0004600615 
     74000   0.0077800166  -0.046450173    0.0052802499  -0.029507427   -0.00041996995
     75000   0.0074292031  -0.046591614    0.0053660244  -0.030088975   -0.00041463259
     76000   0.0080027951  -0.048257038    0.0055370475  -0.030723543    0.0020339269 
     77000   0.0076748602  -0.048277163    0.0053867585  -0.031385542    0.001708909  
     78000   0.008144959   -0.049644101    0.0054825338  -0.03195201    -0.00091277784
     79000   0.0074898826  -0.051124451    0.005852221   -0.034044654    0.00045086305
     80000   0.0082122728  -0.052183593    0.0058364175  -0.034036714   -0.00035149015
     81000   0.0085000032  -0.054556112    0.0056781302  -0.036136202    0.00015970755
     82000   0.0082185397  -0.056153057    0.0062090051  -0.037624196    0.00014269859
     83000   0.0096146426  -0.058705174    0.006278348   -0.038014166    0.00037179401
     84000   0.0092357251  -0.059354831    0.005857861   -0.03965232     0.00047488718
     85000   0.0081015621  -0.059531149    0.0058980691  -0.041488577   -9.8837603e-05
     86000   0.0088965743  -0.061422849    0.0060647872  -0.04202181    -0.00091965681
     87000   0.008721849   -0.062409196    0.0064831676  -0.042851695    0.0029836841 
     88000   0.010043441   -0.06582373     0.0067625536  -0.044005735    0.0013747767 
     89000   0.0095545455  -0.066951882    0.0061576629  -0.046471648    0.00010086466
     90000   0.010147375   -0.069095769    0.0060937386  -0.047790787    0.00022778544
     91000   0.0092176955  -0.069033274    0.0067508475  -0.048464804    0.00063674755
     92000   0.0095120861  -0.070714241    0.0067916841  -0.049663633    0.0015618703 
     93000   0.0092714691  -0.070794768    0.006522662   -0.050373875    0.0014469555 
     94000   0.0093884616  -0.070797593    0.0067830233  -0.049940963    0.0010637428 
     95000   0.010528898   -0.073839706    0.0066369646  -0.051419583    0.0018230506 
     96000   0.0097243418  -0.073761103    0.0063165777  -0.052867424   -0.0007493365 
     97000   0.010361445   -0.075603985    0.0070295896  -0.053042255    0.00013826626
     98000   0.010936829   -0.078282777    0.0072153604  -0.054672758    0.00022203233
     99000   0.010007058   -0.07857286     0.0069755328  -0.056596425   -0.00061588076
    100000   0.010245952   -0.0787175      0.0072617911  -0.056096696   -0.00060968091
    101000   0.010321905   -0.080184721    0.006843532   -0.05786832    -2.6514343e-05
    102000   0.0098863423  -0.080469564    0.0071374487  -0.05851217     0.0013675838 
    103000   0.011470406   -0.083627393    0.0076160969  -0.058816787    0.00050325661
    104000   0.011527542   -0.085612898    0.0075690398  -0.060763701    0.0024648261 
    105000   0.011119937   -0.087780608    0.0078257665  -0.063285697    0.00052593822
    106000   0.01170929    -0.09016856     0.0077799722  -0.064835983   -0.0010794652 
    107000   0.011522565   -0.09285923     0.0077139178  -0.067872615    0.0014563314 
    108000   0.013520888   -0.099770544    0.0085623327  -0.070939963    0.0011599371 
    109000   0.011529412   -0.1033862      0.0088490306  -0.077254211    9.9780679e-05
    110000   0.012026175   -0.10566135     0.0082480033  -0.079385721    0.00075832342
    111000   0.011215969   -0.10599615     0.0076627336  -0.081520322    0.00083506577
    112000   0.011155031   -0.10616894     0.0077189127  -0.081728273   -0.00026488348
    113000   0.011436224   -0.10621597     0.0077084037  -0.081364294    7.3577918e-05
    114000   0.012672019   -0.11039043     0.0085998253  -0.082794837    0.0012530127 
    115000   0.012153045   -0.11208671     0.0085175372  -0.085351362   -6.4095154e-05
    116000   0.012049636   -0.11466189     0.0086054506  -0.087993642   -0.0015391253 
    117000   0.01243089    -0.11854191     0.0086683144  -0.09123929     0.00065466863
    118000   0.012108205   -0.1201731      0.0083938083  -0.093628703   -0.00041303951
    119000   0.012689081   -0.12013065     0.0088543273  -0.092254982   -0.00096825055
    120000   0.012507534   -0.12010363     0.0079302036  -0.093424231    0.00096341165
    121000   0.012065162   -0.12124812     0.0088226293  -0.094339426    0.0014168063 
    122000   0.012286842   -0.12179662     0.0084377469  -0.094940495    0.0012712939 
    123000   0.011881204   -0.12178198     0.0082467384  -0.095724935   -0.00058701291
    124000   0.011906768   -0.12185453     0.0084862301  -0.095519671    0.00041316515
    125000   0.013792785   -0.1248418      0.0083258689  -0.095840104    0.00016978222
    126000   0.013139208   -0.12489264     0.0088637578  -0.096332791    0.00086586767
    127000   0.01339256    -0.12597187     0.0092406025  -0.096655385    0.00021313089
    128000   0.012977605   -0.12746187     0.0094391684  -0.098568856    0.001440335  
    129000   0.012999544   -0.12831175     0.0090752144  -0.099749798    0.00011772323
    130000   0.013022825   -0.12899056     0.0094926808  -0.099976249    0.00052793574
    131000   0.013891834   -0.13118285     0.0097554493  -0.10060309     0.0034667808 
    132000   0.013860114   -0.13245439     0.0092993604  -0.10237827     0.0009786373 
    133000   0.014934926   -0.13600418     0.0096264331  -0.10398981     0.0016770208 
    134000   0.01462707    -0.1370186      0.0096314426  -0.10546071     0.0020788597 
    135000   0.014228718   -0.13993815     0.01054441    -0.10806443     0.00046501017
    136000   0.014914804   -0.14348418     0.0098365609  -0.11128985    -0.0021641173 
    137000   0.013973747   -0.14361697     0.009459494   -0.11321037    -0.0020976194 
    138000   0.013872876   -0.14417564     0.0092943229  -0.11408543     0.0023131397 
    139000   0.014460919   -0.14667179     0.0093290601  -0.11566535    -0.00066858715
    140000   0.015166561   -0.15084675     0.010136513   -0.11797507     0.00025845536
    141000   0.014208733   -0.15355689     0.010021478   -0.12223607    -0.0010538288 
    142000   0.014540299   -0.15515102     0.010751868   -0.12260277     0.00086521746
    143000   0.014997595   -0.15532283     0.010004932   -0.12283601     0.00099784296
    144000   0.01490291    -0.15833363     0.010711901   -0.12528178     0.0037683474 
    145000   0.015051655   -0.16026409     0.0099233847  -0.12777779     0.00049042536
    146000   0.015979182   -0.16192698     0.010423745   -0.12754993     0.0012575711 
    147000   0.015147878   -0.16551335     0.010249275   -0.13255692    -0.0013239703 
    148000   0.014825176   -0.16665825     0.01015925    -0.13427558     0.0015399896 
    149000   0.015494723   -0.16841666     0.010200502   -0.13498906     0.0023635142 
    150000   0.015465676   -0.1694731      0.010264762   -0.13602479     0.0026424569 
    151000   0.016167965   -0.17369113     0.010541863   -0.13891296    -0.00070770643
    152000   0.015683691   -0.17684387     0.011211877   -0.14212163     0.00034250157
    153000   0.01656846    -0.18126825     0.011133369   -0.14529822     0.0020014242 
    154000   0.016773033   -0.18366256     0.011995863   -0.14652338    -0.00059148474
    155000   0.015785556   -0.18395009     0.011174891   -0.14911214     0.00020290486
    156000   0.016256696   -0.18522459     0.011044093   -0.14981118     0.00096699587
    157000   0.015910268   -0.18725396     0.011083719   -0.15232024     0.0010204386 
    158000   0.01668863    -0.19126579     0.011264912   -0.15498408     0.0010892588 
    159000   0.017307707   -0.19490463     0.01210997    -0.15684985     0.00061754826
    160000   0.017286168   -0.19815935     0.011192504   -0.16105433     0.00042546026
    161000   0.01685865    -0.20211613     0.012425171   -0.1644193      0.0022811951 
    162000   0.016105746   -0.20289588     0.011789036   -0.16696381     8.273949e-06 
    163000   0.017682302   -0.20601745     0.011607279   -0.16790383     0.0036395121 
    164000   0.016711545   -0.20647337     0.011803369   -0.16961886     3.1427165e-05
    165000   0.017245625   -0.20780135     0.011940298   -0.17000931    -0.0012428759 
    166000   0.017541695   -0.21172958     0.011837362   -0.17359665     0.0011696033 
    167000   0.017069197   -0.21262288     0.012105317   -0.17493028     0.0032196413 
    168000   0.018187669   -0.21449267     0.011258684   -0.17597008     0.00087491087
    169000   0.017091391   -0.21537452     0.011513301   -0.17824068     0.00084536991
    170000   0.017678687   -0.21710045     0.011942382   -0.17865715     0.002610459  
    171000   0.017836617   -0.2173808      0.011492091   -0.17915105     0.00083438871
    172000   0.017235823   -0.21717107     0.011659228   -0.17967479    -0.0010030426 
    173000   0.016980286   -0.2183061      0.012029623   -0.18082248    -6.7138468e-05
    174000   0.018914965   -0.2229929      0.012969689   -0.18166906     0.0019989009 
    175000   0.017894866   -0.22375807     0.012662589   -0.1842705      0.00068528834
    176000   0.018384573   -0.22601438     0.012694707   -0.18576061     0.00091090186
    177000   0.018278042   -0.22698285     0.012272734   -0.18731074     0.0025119106 
    178000   0.018743196   -0.23004157     0.012406001   -0.18953891     0.0016600777 
    179000   0.019809599   -0.23265691     0.012306404   -0.19065528    -0.0010522512 
    180000   0.018859042   -0.23459107     0.013023229   -0.19329752     0.00072763275
    181000   0.018091767   -0.23554728     0.011872913   -0.19655423     0.0030833182 
    182000   0.018822617   -0.23738286     0.012312979   -0.19685417    -0.00071220455
    183000   0.020124442   -0.24064763     0.013071959   -0.19740848    -0.0014960358 
    184000   0.019127351   -0.2444336      0.013515999   -0.20224508     0.0051912273 
    185000   0.019609875   -0.24484309     0.012486548   -0.20296071     0.0048092299 
    186000   0.0197249     -0.24648401     0.012679914   -0.20423583     0.0056295484 
    187000   0.020705379   -0.25228128     0.014633631   -0.20660962     0.0025515556 
    188000   0.019151811   -0.25402013     0.013967739   -0.21134321     0.0011937287 
    189000   0.018625218   -0.25563509     0.013553296   -0.21416199     0.0037573733 
    190000   0.019605514   -0.25595194     0.013288484   -0.21327416     0.0025400461 
    191000   0.020011714   -0.25975658     0.013430991   -0.21632739     0.0019659513 
    192000   0.020272719   -0.2601826      0.013185245   -0.2166079      0.0050453176 
    193000   0.019700963   -0.26076787     0.013931567   -0.21730392    -0.0006335381 
    194000   0.01974209    -0.26051344     0.013705068   -0.21721434     0.0026431003 
    195000   0.019528476   -0.26081942     0.013796464   -0.21774914    -0.0028261175 
    196000   0.020847875   -0.26180311     0.013994319   -0.21655715    -0.0014210751 
    197000   0.020752863   -0.26587403     0.014089013   -0.22067581     0.0014279831 
    198000   0.020746688   -0.26668265     0.013695358   -0.22188734     0.0057267931 
    199000   0.020376723   -0.26664822     0.014284056   -0.2218188      0.0011137905 
    200000   0.020564482   -0.26827183     0.01416768    -0.22327733    -0.0022260281 
    201000   0.02152223    -0.26991351     0.013629715   -0.22402128     0.0041966306 
    202000   0.020320238   -0.27168149     0.015199289   -0.22602151     0.0013686853 
    203000   0.020647242   -0.27289309     0.014050637   -0.22789157     0.0022985773 
    204000   0.022206744   -0.27627058     0.01511956    -0.2278624      0.00039476784
    205000   0.021332742   -0.27759552     0.015603883   -0.23001317     0.002762463  
    206000   0.021806195   -0.28006701     0.014940895   -0.23243793    -0.0028518012 
    207000   0.020433408   -0.28018321     0.013470216   -0.23608266     0.0012217397 
    208000   0.021593674   -0.28278939     0.014792058   -0.23562772     0.0011186862 
    209000   0.022018056   -0.28430995     0.014134107   -0.23717007     0.0047496959 
    210000   0.021816359   -0.28594536     0.014438505   -0.23880343     0.00056101019
    211000   0.021717485   -0.28657692     0.014727566   -0.23929414     0.001095136  
    212000   0.022160084   -0.28629262     0.014291979   -0.23878196     0.0014269198 
    213000   0.021816044   -0.29070717     0.01517513    -0.24282909     0.0017950691 
    214000   0.023286297   -0.29595422     0.015344885   -0.24570242     0.0029296911 
    215000   0.021715143   -0.29726993     0.01575671    -0.24896152     0.0010772507 
    216000   0.022295345   -0.29760164     0.014016958   -0.25016324    -0.0012030449 
    217000   0.022406457   -0.30175774     0.015200195   -0.25296954     0.00094025328
    218000   0.022533532   -0.30333786     0.015566297   -0.25399307     0.0043354953 
    219000   0.023041914   -0.30670953     0.015382584   -0.25678637     0.0051030406 
    220000   0.023084739   -0.30748818     0.014403275   -0.25848014     0.0017070253 
    221000   0.022110167   -0.30960218     0.015173119   -0.2612852      0.0044769433 
    222000   0.022521283   -0.31174169     0.01593642    -0.26204514    -0.0030236054 
    223000   0.023426398   -0.3119563      0.016044544   -0.26079483     0.0056978253 
    224000   0.0236492     -0.31203738     0.015628559   -0.26095791    -0.00061461526
    225000   0.022297845   -0.31225943     0.015565858   -0.26326838     0.0015392877 
    226000   0.023375677   -0.31371247     0.014893005   -0.26377858     0.0041310608 
    227000   0.022912094   -0.31585272     0.015753695   -0.26575306    -0.00031987834
    228000   0.022392934   -0.31707021     0.015767768   -0.26773471     0.0026396159 
    229000   0.022794391   -0.3170614      0.015678674   -0.2672132     -0.0022149739 
    230000   0.023926918   -0.31920433     0.015720647   -0.26761646     0.0038768585 
    231000   0.024045544   -0.32095377     0.015843311   -0.26906541     0.0012855178 
    232000   0.023437912   -0.32278456     0.01649165    -0.27115872     0.0041943735 
    233000   0.024340687   -0.32398125     0.016036218   -0.27145756    -0.00056112981
    234000   0.023894039   -0.32599065     0.01670617    -0.27346654     0.0027167267 
    235000   0.024237429   -0.32728888     0.01609395    -0.27486224     0.0022162189 
    236000   0.023136171   -0.32774688     0.016738719   -0.27632629    -0.0026771586 
    237000   0.023622263   -0.3278874      0.016094536   -0.27638233    -0.00038193119
    238000   0.024386212   -0.32794226     0.016084903   -0.27530164     0.0059045931 
    239000   0.024482285   -0.32926387     0.016888595   -0.27567554     0.0020411081 
    240000   0.023584713   -0.33101721     0.016783582   -0.27887938     0.0001405098 
    241000   0.026104269   -0.3370344      0.017696097   -0.28020716     0.0038004594 
    242000   0.025032982   -0.33808156     0.017372211   -0.2831841      0.0010350864 
    243000   0.024654656   -0.3392564      0.016658808   -0.28563947    -0.00082079069
    244000   0.024500179   -0.33987971     0.01682043    -0.28633272     0.00041619872
    245000   0.024872106   -0.34054678     0.01696184    -0.28630085    -0.0012519638 
    246000   0.02479618    -0.34138462     0.01762747    -0.28658688    -0.0020451282 
    247000   0.024967264   -0.34141166     0.017504458   -0.28648047    -0.0043619252 
    248000   0.026225094   -0.34444887     0.01711264    -0.28802397     0.0040819565 
    249000   0.025526623   -0.34756551     0.017406956   -0.29189332     0.00032736332
    250000   0.025450118   -0.34927283     0.017790361   -0.29333192     0.0030175967 
    251000   0.027329468   -0.35422469     0.019467416   -0.29378952    -0.0010389788 
    252000   0.026372847   -0.35606816     0.018239231   -0.29829518    -0.001058947  
    253000   0.026001029   -0.35828464     0.017333863   -0.3019744     -0.00059830281
    254000   0.026447145   -0.36079715     0.017950846   -0.30320118    -0.0010535278 
    255000   0.026339722   -0.36163274     0.017808415   -0.30434024     0.0027599971 
    256000   0.026234759   -0.36206519     0.017107897   -0.30563054     0.0016074572 
    257000   0.02605375    -0.36338137     0.019433241   -0.30489272     0.0021903247 
    258000   0.026253194   -0.36334652     0.017996843   -0.30599529    -0.0045805029 
    259000   0.026169507   -0.36309598     0.018148698   -0.30571835     0.00077473796
    260000   0.026562806   -0.36410234     0.01859391    -0.30568993    -0.0029090817 
    261000   0.027035419   -0.36556724     0.019004173   -0.3060361      0.0025334014 
    262000   0.027526      -0.36663948     0.019265024   -0.3061121     -0.0029898142 
    263000   0.027481193   -0.36862453     0.019121576   -0.30830776     0.0011066165 
    264000   0.027062172   -0.37101471     0.019184724   -0.31126292     0.0011040764 
    265000   0.027349579   -0.37272324     0.018974086   -0.31275125     0.0013097512 
    266000   0.02697077    -0.37279022     0.018225612   -0.31413455     0.0019448978 
    267000   0.027048848   -0.37278574     0.018070064   -0.31416858    -0.0036252473 
    268000   0.027479579   -0.37443506     0.018667177   -0.3145751     -0.00091953651
    269000   0.027239188   -0.37755491     0.019238761   -0.31748373     0.0026703433 
    270000   0.029049453   -0.38075917     0.019097461   -0.31811565     0.002172794  
    271000   0.027739379   -0.38249539     0.019416941   -0.32149623     0.0046530754 
    272000   0.029679278   -0.38387933     0.01939632    -0.31999282     0.0023471087 
    273000   0.028573637   -0.38490582     0.020986682   -0.32108633    -0.0051075672 
    274000   0.029185995   -0.38498851     0.019995907   -0.32124186     0.0055573607 
    275000   0.027796175   -0.38537617     0.020981794   -0.32272701     0.002408214  
    276000   0.026706407   -0.385308       0.020217469   -0.32505676    -0.00022776361
    277000   0.029972381   -0.38641897     0.019809769   -0.32167964     0.0010788591 
    278000   0.028960493   -0.3879667      0.020598615   -0.32395537    -0.0015283892 
    279000   0.029191583   -0.38895924     0.018727552   -0.32647256     0.006192537  
    280000   0.028434676   -0.39040788     0.019811076   -0.32797231    -0.0026792895 
    281000   0.028475874   -0.39290505     0.019647262   -0.33057153     0.00091136267
    282000   0.028403496   -0.39550749     0.019556695   -0.33337304     0.0029727924 
    283000   0.029484984   -0.39718778     0.018973186   -0.33401565    -0.0019302768 
    284000   0.028416433   -0.3977014      0.019934021   -0.33517023     0.0017490871 
    285000   0.029212322   -0.39873199     0.019128836   -0.33581294     0.0069067076 
    286000   0.029487592   -0.40185223     0.021367165   -0.33628221     0.0021312715 
    287000   0.029122842   -0.40507336     0.020442777   -0.34097451     0.0060118341 
    288000   0.029542012   -0.40672785     0.019684665   -0.34275875     0.0027228871 
    289000   0.030301375   -0.40927699     0.02147636    -0.34237789     0.00097355899
    290000   0.029447672   -0.41102952     0.020110982   -0.34677553     0.0014111797 
    291000   0.030871151   -0.41326796     0.020038148   -0.34695296     6.6101542e-06
    292000   0.030251836   -0.41441741     0.020538136   -0.3485308      0.0046044612 
    293000   0.03042652    -0.4167456      0.021341551   -0.34979371     0.0030816364 
    294000   0.030716084   -0.41961743     0.020880478   -0.35269255     0.008025714  
    295000   0.031234097   -0.41975792     0.020807883   -0.35212912    -0.0019786208 
    296000   0.02964831    -0.4212245      0.021225288   -0.35555544    -0.0022796802 
    297000   0.030049562   -0.42223558     0.020789848   -0.35640047    -0.0026286531 
    298000   0.030639378   -0.42296911     0.020591515   -0.35644818     0.00065063505
    299000   0.029932271   -0.4228396      0.020689131   -0.35728103    -0.004469548  
    300000   0.030919378   -0.42381973     0.020698537   -0.35677205     0.0018301216 
    301000   0.029854713   -0.42427491     0.020474389   -0.35904734    -0.0032109452 
    302000   0.029407474   -0.42406933     0.02038311    -0.35960347     0.0024102559 
    303000   0.029635373   -0.42380016     0.02058844    -0.35878734     0.0099135646 
    304000   0.030777992   -0.42467306     0.020611213   -0.35792465     0.0026699631 
    305000   0.030620131   -0.42499936     0.02088337    -0.35821543    -0.0055037957 
    306000   0.031300341   -0.42794174     0.022029113   -0.35899241     0.0041201081 
    307000   0.031949597   -0.42903885     0.021742286   -0.35940308     0.0052669573 
    308000   0.031394351   -0.43091647     0.021470184   -0.36238514    -0.0082510477 
    309000   0.032585423   -0.43320814     0.02109776    -0.36326378    -0.0014119765 
    310000   0.032427327   -0.43447653     0.022679432   -0.36318749     0.0061077196 
    311000   0.032880456   -0.43618262     0.020900954   -0.3659928      0.0012489623 
    312000   0.033396682   -0.43834209     0.021472327   -0.36680706    -0.0012682411 
    313000   0.032302591   -0.44051782     0.021962091   -0.3701331      0.0091688605 
    314000   0.033220711   -0.44440287     0.021883077   -0.37272087    -0.0030525955 
    315000   0.032097435   -0.44763735     0.022805596   -0.37671666    -0.003364997  
    316000   0.032631711   -0.44988188     0.021437439   -0.37952845     0.00070156664
    317000   0.032660035   -0.4494792      0.02204671    -0.37847404     0.0061855167 
    318000   0.034857669   -0.45518741     0.024397512   -0.37853713    -0.0024771491 
    319000   0.033933732   -0.45643761     0.023061383   -0.38250847     0.0038790603 
    320000   0.033443338   -0.45727421     0.02300507    -0.38413